# t (s)	mx ()	my ()	mz ()	m.region21x ()	m.region21y ()	m.region21z ()	m.region22x ()	m.region22y ()	m.region22z ()	m.region23x ()	m.region23y ()	m.region23z ()	B_extx (T)	B_exty (T)	B_extz (T)	B_eff.region6x (T)	B_eff.region6y (T)	B_eff.region6z (T)	B_eff.region9x (T)	B_eff.region9y (T)	B_eff.region9z (T)	step_x (No unit)	step_y (No unit)
0	0.12268733	-0.2005819	-0.0012304516	0.704652	-0.70705026	3.8484242e-05	-0.014424222	0.016626414	-0.0047221156	-0.09652762	-0.10537563	-0.006358699	0	0	0	NaN	NaN	NaN	NaN	NaN	NaN	0	1e-07
0	0.10455135	-0.18261291	-0.0013933715	0.70433164	-0.7073482	3.3035296e-05	-0.10050612	0.101765245	-0.0036906726	-0.09897467	-0.10073916	-0.006336202	-0.004242653	0.004242653	0	NaN	NaN	NaN	NaN	NaN	NaN	0	1e-07
0	0.08557187	-0.1639526	-0.0014122227	0.70399904	-0.70765793	3.4835608e-05	-0.19262846	0.1938987	-0.003733993	-0.10234585	-0.09689544	-0.0063230344	-0.008485306	0.008485306	0	NaN	NaN	NaN	NaN	NaN	NaN	0	1e-07
0	0.069691375	-0.14847663	-0.0014384069	0.7037319	-0.7079015	3.6548256e-05	-0.27022123	0.27152067	-0.0039944216	-0.106015176	-0.09333554	-0.0062985322	-0.012727873	0.012727873	0	NaN	NaN	NaN	NaN	NaN	NaN	0	1e-07
0	0.053297833	-0.13214754	-0.0015318329	0.70342153	-0.70818716	2.5459929e-05	-0.36627877	0.36658886	-0.004429983	-0.108007155	-0.0881198	-0.005298503	-0.016970612	0.016970612	0	NaN	NaN	NaN	NaN	NaN	NaN	0	1e-07
0	0.038697112	-0.11792274	-0.0015871788	0.70318526	-0.7083988	2.3440904e-05	-0.43618244	0.43639985	-0.004051419	-0.11154892	-0.08437447	-0.005275226	-0.021213247	0.021213247	0	NaN	NaN	NaN	NaN	NaN	NaN	0	1e-07
0	-0.011651657	-0.06793928	-0.00037507038	0.70243365	-0.70912135	1.9179372e-05	-0.7042439	0.7069303	9.842769e-07	-0.11468615	-0.0805885	-0.0052834596	-0.025455747	0.025455747	0	NaN	NaN	NaN	NaN	NaN	NaN	0	1e-07
0	-0.013273965	-0.066719845	-0.00037495632	0.7024243	-0.7091063	1.9198116e-05	-0.70427704	0.70692706	9.725243e-07	-0.11910357	-0.07752312	-0.0052824006	-0.029698389	0.029698389	0	NaN	NaN	NaN	NaN	NaN	NaN	0	1e-07
0	-0.014284729	-0.064862445	-0.0004091422	0.7024261	-0.7090785	2.212855e-05	-0.7042888	0.70694464	2.1134235e-06	-0.11677637	-0.06766747	-0.0055961288	-0.033941224	0.033941224	0	NaN	NaN	NaN	NaN	NaN	NaN	0	1e-07
0	-0.015813258	-0.06114884	-0.00039684595	0.7024074	-0.709072	2.1984588e-05	-0.70437264	0.7068858	1.3263119e-06	-0.12065402	-0.06419024	-0.005552809	-0.03818381	0.03818381	0	NaN	NaN	NaN	NaN	NaN	NaN	0	1e-07
0	-0.017376032	-0.059883203	-0.00039183997	0.70239824	-0.70905536	2.1897802e-05	-0.7044037	0.7068832	1.2187836e-06	-0.12445663	-0.060602006	-0.00550764	-0.042426493	0.042426493	0	NaN	NaN	NaN	NaN	NaN	NaN	0	1e-07
0	-0.018439727	-0.057099096	-0.00050549343	0.70239455	-0.7090329	2.2441187e-05	-0.7044079	0.70690733	6.528265e-06	-0.123026595	-0.051673397	-0.00570761	-0.04666901	0.04666901	0	NaN	NaN	NaN	NaN	NaN	NaN	0	1e-07
0	-0.019640418	-0.055467542	-0.0005058139	0.7023922	-0.70900846	2.2453165e-05	-0.704432	0.70691067	6.477294e-06	-0.12284524	-0.043980923	-0.005710996	-0.050911494	0.050911494	0	NaN	NaN	NaN	NaN	NaN	NaN	0	1e-07
0	-0.021206895	-0.054213136	-0.0005007706	0.7023824	-0.7089912	2.2333137e-05	-0.7044623	0.7069073	6.3975467e-06	-0.12672876	-0.040527403	-0.0056541916	-0.055154674	0.055154674	0	NaN	NaN	NaN	NaN	NaN	NaN	0	1e-07
0	-0.022714658	-0.05289771	-0.00049848796	0.7023735	-0.7089725	2.2227716e-05	-0.7044916	0.70690465	6.326293e-06	-0.12996383	-0.03641315	-0.0056283623	-0.059396777	0.059396777	0	NaN	NaN	NaN	NaN	NaN	NaN	0	1e-07
0	-0.024284607	-0.051641464	-0.00049397995	0.70236325	-0.7089547	2.2109809e-05	-0.70452136	0.7069009	6.2495565e-06	-0.13389134	-0.032984596	-0.005577569	-0.06363919	0.06363919	0	NaN	NaN	NaN	NaN	NaN	NaN	0	1e-07
0	-0.025811514	-0.050333627	-0.000489896	0.7023534	-0.70893574	2.2005324e-05	-0.7045504	0.7068975	6.1778182e-06	-0.13734207	-0.029002918	-0.0055315536	-0.06788245	0.06788245	0	NaN	NaN	NaN	NaN	NaN	NaN	0	1e-07
0	-0.027389864	-0.04908026	-0.0004847874	0.70234275	-0.70891726	2.1876614e-05	-0.7045798	0.7068934	6.0996113e-06	-0.14136538	-0.025656383	-0.0054740133	-0.07212458	0.07212458	0	NaN	NaN	NaN	NaN	NaN	NaN	0	1e-07
0	-0.02896784	-0.04782443	-0.00047946392	0.70233184	-0.7088983	2.1747957e-05	-0.70460886	0.70688903	6.0214447e-06	-0.1453848	-0.02230887	-0.005414063	-0.07636762	0.07636762	0	NaN	NaN	NaN	NaN	NaN	NaN	0	1e-07
0	-0.030592818	-0.046608828	-0.00047719057	0.7023199	-0.7088801	2.1874444e-05	-0.70463926	0.70688313	6.014137e-06	-0.14992559	-0.019437319	-0.005388753	-0.080609836	0.080609836	0	NaN	NaN	NaN	NaN	NaN	NaN	0	1e-07
0	-0.032215655	-0.045390286	-0.000467806	0.70230764	-0.7088616	2.1636191e-05	-0.70466864	0.70687765	5.902449e-06	-0.15444179	-0.016563207	-0.005282992	-0.084852986	0.084852986	0	NaN	NaN	NaN	NaN	NaN	NaN	0	1e-07
0	-0.033756875	-0.044089764	-0.00046289683	0.70229715	-0.7088403	2.1518255e-05	-0.7046959	0.7068741	5.8282317e-06	-0.15805179	-0.012802781	-0.0052276757	-0.0890958	0.0890958	0	NaN	NaN	NaN	NaN	NaN	NaN	0	1e-07
0	-0.035173018	-0.042664047	-0.00046449527	0.7022895	-0.7088157	2.1488942e-05	-0.70472026	0.70687294	5.7883813e-06	-0.16027348	-0.0076726824	-0.005245605	-0.09333802	0.09333802	0	NaN	NaN	NaN	NaN	NaN	NaN	0	1e-07
0	-0.036754277	-0.041400474	-0.00045837637	0.7022776	-0.7087949	2.1338441e-05	-0.70474815	0.7068679	5.706673e-06	-0.16432488	-0.0043869033	-0.0051766904	-0.09758025	0.09758025	0	NaN	NaN	NaN	NaN	NaN	NaN	0	1e-07
0	-0.03834033	-0.040138517	-0.0004517733	0.7022653	-0.7087736	2.1174823e-05	-0.7047758	0.7068627	5.623712e-06	-0.16842753	-0.0011517506	-0.005102326	-0.10182299	0.10182299	0	NaN	NaN	NaN	NaN	NaN	NaN	0	1e-07
0	-0.03992169	-0.038869113	-0.00044541404	0.702253	-0.70875174	2.1019692e-05	-0.70480317	0.70685756	5.543382e-06	-0.17247546	0.002133246	-0.0050307154	-0.10606659	0.10606659	0	NaN	NaN	NaN	NaN	NaN	NaN	0	1e-07
0	-0.04145753	-0.03754966	-0.00044000236	0.7022417	-0.70872796	2.089709e-05	-0.704829	0.70685357	5.4707184e-06	-0.1760144	0.005942095	-0.004969759	-0.11030935	0.11030935	0	NaN	NaN	NaN	NaN	NaN	NaN	0	1e-07
0	-0.043031454	-0.036266495	-0.000433354	0.7022291	-0.7087049	2.0732668e-05	-0.70485556	0.7068484	5.3891954e-06	-0.17996994	0.009309181	-0.004894893	-0.11455149	0.11455149	0	NaN	NaN	NaN	NaN	NaN	NaN	0	1e-07
0	-0.044611197	-0.03498539	-0.00042660802	0.7022161	-0.70868134	2.0566742e-05	-0.70488214	0.706843	5.307443e-06	-0.18398142	0.012613626	-0.004818939	-0.118793555	0.118793555	0	NaN	NaN	NaN	NaN	NaN	NaN	0	1e-07
0	-0.0459743	-0.033486668	-0.00041749424	0.7022082	-0.70865136	2.0220921e-05	-0.70490164	0.70684433	5.1718325e-06	-0.18557696	0.018300466	-0.004716034	-0.12303616	0.12303616	0	NaN	NaN	NaN	NaN	NaN	NaN	0	1e-07
0	-0.047576763	-0.032217212	-0.0004105003	0.70219404	-0.70862734	2.0040196e-05	-0.7049284	0.7068381	5.0901476e-06	-0.1898087	0.021376213	-0.004637314	-0.12727837	0.12727837	0	NaN	NaN	NaN	NaN	NaN	NaN	0	1e-07
0	-0.04919283	-0.030951735	-0.0004028003	0.70217925	-0.708603	1.9845183e-05	-0.70495546	0.7068313	5.0046474e-06	-0.19416124	0.02433431	-0.0045506954	-0.1315224	0.1315224	0	NaN	NaN	NaN	NaN	NaN	NaN	0	1e-07
0	-0.05034195	-0.0038529064	-0.0003953977	0.7021289	-0.7086149	1.9589153e-05	-0.7050029	0.70679134	4.911703e-06	-0.19755471	0.0280137	-0.004467198	-0.1357649	0.1357649	0	NaN	NaN	NaN	NaN	NaN	NaN	0	1e-07
0	-0.05197745	-0.002642663	-0.0003855602	0.70211303	-0.70858985	1.9360368e-05	-0.70502776	0.70678633	4.8177294e-06	-0.2024108	0.030514942	-0.004356538	-0.14000703	0.14000703	0	NaN	NaN	NaN	NaN	NaN	NaN	0	1e-07
0	-0.053601515	-0.0014210927	-0.00037399732	0.7020968	-0.7085639	1.911052e-05	-0.7050523	0.7067814	4.717903e-06	-0.20713285	0.033099495	-0.0042265435	-0.14424916	0.14424916	0	NaN	NaN	NaN	NaN	NaN	NaN	0	1e-07
0	-0.05515574	-0.00012902706	-0.00036687645	0.7020815	-0.7085363	1.8879035e-05	-0.70507586	0.70677704	4.627674e-06	-0.21106383	0.03641844	-0.0041463384	-0.14849167	0.14849167	0	NaN	NaN	NaN	NaN	NaN	NaN	0	1e-07
0	-0.055438545	0.021369012	-0.000522201	0.7020617	-0.70851225	3.3985063e-05	-0.7050963	0.7067675	7.797994e-06	-0.20448019	0.0500893	-0.0059074033	-0.15273523	0.15273523	0	NaN	NaN	NaN	NaN	NaN	NaN	0	1e-07
0	-0.05698397	0.02264239	-0.00051266915	0.70204544	-0.7084832	3.3744687e-05	-0.7051181	0.7067645	7.673754e-06	-0.20851706	0.053300325	-0.0058000386	-0.15697764	0.15697764	0	NaN	NaN	NaN	NaN	NaN	NaN	0	1e-07
0	-0.058518503	0.023928741	-0.0005032946	0.7020289	-0.7084533	3.350456e-05	-0.70513946	0.70676166	7.5506678e-06	-0.21243462	0.056616887	-0.005694437	-0.16121967	0.16121967	0	NaN	NaN	NaN	NaN	NaN	NaN	0	1e-07
0	-0.060049176	0.025221838	-0.0004939603	0.7020119	-0.7084223	3.3266202e-05	-0.7051606	0.7067588	7.428534e-06	-0.2163108	0.05996865	-0.005589286	-0.16546357	0.16546357	0	NaN	NaN	NaN	NaN	NaN	NaN	0	1e-07
0	-0.061579082	0.02651935	-0.00048460436	0.7019945	-0.70839065	3.303138e-05	-0.70518154	0.706756	7.307553e-06	-0.22017743	0.063326396	-0.0054839025	-0.16970597	0.16970597	0	NaN	NaN	NaN	NaN	NaN	NaN	0	1e-07
0	-0.063108765	0.027822154	-0.00047526395	0.7019765	-0.70835805	3.2799962e-05	-0.70520234	0.70675296	7.1876225e-06	-0.22403383	0.066691175	-0.0053787306	-0.17394815	0.17394815	0	NaN	NaN	NaN	NaN	NaN	NaN	0	1e-07
0	-0.0631726	0.07422683	-0.00046871544	0.7019001	-0.7083859	3.2660817e-05	-0.7052487	0.70670843	7.0981573e-06	-0.2277075	0.07003576	-0.0053044953	-0.1781916	0.1781916	0	NaN	NaN	NaN	NaN	NaN	NaN	0	1e-07
0	-0.06462496	0.075520866	-0.00046063476	0.7018818	-0.70835066	3.2487627e-05	-0.7052658	0.7067088	6.9909215e-06	-0.23133652	0.0736169	-0.0052134497	-0.18243395	0.18243395	0	NaN	NaN	NaN	NaN	NaN	NaN	0	1e-07
0	-0.06606963	0.07682509	-0.00045294611	0.70186317	-0.70831424	3.237956e-05	-0.7052824	0.70670944	6.8958448e-06	-0.23488973	0.07727892	-0.0051268633	-0.18667604	0.18667604	0	NaN	NaN	NaN	NaN	NaN	NaN	0	1e-07
0	-0.06748673	0.0781805	-0.0005144394	0.7018472	-0.7082729	4.1467745e-05	-0.70529723	0.70671165	8.5152315e-06	-0.23814628	0.081474654	-0.005826729	-0.19091812	0.19091812	0	NaN	NaN	NaN	NaN	NaN	NaN	0	1e-07
0	-0.06815431	0.08031222	-0.000528387	0.70184064	-0.70822054	4.1444968e-05	-0.7053056	0.7067202	8.431532e-06	-0.2330823	0.09432431	-0.005982263	-0.1951605	0.1951605	0	NaN	NaN	NaN	NaN	NaN	NaN	0	1e-07
0	-0.069598146	0.0816229	-0.0005206568	0.70181996	-0.7081806	4.1381227e-05	-0.7053218	0.7067205	8.329411e-06	-0.23664863	0.097951755	-0.0058952146	-0.19940366	0.19940366	0	NaN	NaN	NaN	NaN	NaN	NaN	0	1e-07
0	-0.07103797	0.08294115	-0.000513229	0.70179856	-0.7081392	4.138384e-05	-0.70533776	0.7067209	8.238253e-06	-0.24017471	0.101624705	-0.0058116238	-0.20364597	0.20364597	0	NaN	NaN	NaN	NaN	NaN	NaN	0	1e-07
0	-0.07177189	0.0849754	-9.013167e-05	0.7017989	-0.7080714	-1.9439318e-05	-0.7053357	0.7067391	-2.4253113e-06	-0.2358698	0.11324293	-0.0009999656	-0.20788802	0.20788802	0	NaN	NaN	NaN	NaN	NaN	NaN	0	1e-07
0	-0.07324112	0.08626861	-8.7145774e-05	0.70177454	-0.70802826	-1.9500772e-05	-0.70535195	0.7067389	-2.4031897e-06	-0.23971374	0.116547845	-0.00096650724	-0.21213318	0.21213318	0	NaN	NaN	NaN	NaN	NaN	NaN	0	1e-07
0	-0.07475078	0.08760739	-8.421876e-05	0.70174915	-0.7079837	-1.9564968e-05	-0.7053678	0.70673865	-2.3802177e-06	-0.2435259	0.11987525	-0.00093364244	-0.21637549	0.21637549	0	NaN	NaN	NaN	NaN	NaN	NaN	0	1e-07
0	-0.20217957	0.21500422	-8.317058e-05	0.70174557	-0.70790726	-1.9589845e-05	-0.7052423	0.7068811	-2.3457287e-06	-0.25055796	0.121115334	-0.00092196336	-0.2206187	0.2206187	0	NaN	NaN	NaN	NaN	NaN	NaN	0	1e-07
0	-0.20361388	0.21632494	-7.9504e-05	0.7017178	-0.70785874	-1.9707006e-05	-0.7052582	0.70688057	-2.3291725e-06	-0.2542158	0.12458778	-0.00088079437	-0.2248607	0.2248607	0	NaN	NaN	NaN	NaN	NaN	NaN	0	1e-07
0	-0.20504445	0.21765181	-7.545194e-05	0.7016886	-0.7078084	-1.9853074e-05	-0.70527375	0.70688015	-2.3169036e-06	-0.25784397	0.12809138	-0.00083526905	-0.22910298	0.22910298	0	NaN	NaN	NaN	NaN	NaN	NaN	0	1e-07
0	-0.20647417	0.21898241	-7.0927425e-05	0.70165765	-0.70775616	-2.0049782e-05	-0.70528924	0.7068796	-2.3097277e-06	-0.2614723	0.13159679	-0.0007843932	-0.23334505	0.23334505	0	NaN	NaN	NaN	NaN	NaN	NaN	0	1e-07
0	-0.2079156	0.22030503	-6.5000626e-05	0.7016244	-0.7077022	-2.03844e-05	-0.7053047	0.706879	-2.3254122e-06	-0.2652381	0.13496986	-0.0007176175	-0.23758711	0.23758711	0	NaN	NaN	NaN	NaN	NaN	NaN	0	1e-07
0	-0.20934533	0.22164041	4.8093858e-05	0.7015906	-0.7076439	-2.9739005e-05	-0.70531934	0.70687884	-3.999228e-06	-0.26888108	0.13843715	0.00056304754	-0.2418294	0.2418294	0	NaN	NaN	NaN	NaN	NaN	NaN	0	1e-07
0	-0.21076311	0.22299339	4.9688737e-05	0.70155305	-0.7075845	-2.9996118e-05	-0.70533377	0.706879	-3.9514157e-06	-0.2723961	0.14205272	0.00058092934	-0.24607232	0.24607232	0	NaN	NaN	NaN	NaN	NaN	NaN	0	1e-07
0	-0.2121833	0.22434825	5.1242376e-05	0.701512	-0.7075226	-3.0354178e-05	-0.705348	0.70687896	-3.905092e-06	-0.27594283	0.14563805	0.0005983997	-0.2503146	0.2503146	0	NaN	NaN	NaN	NaN	NaN	NaN	0	1e-07
0	-0.21360622	0.22570491	5.280572e-05	0.7014664	-0.7074578	-3.0899602e-05	-0.705362	0.706879	-3.8586777e-06	-0.27952445	0.14919133	0.0006160689	-0.25455675	0.25455675	0	NaN	NaN	NaN	NaN	NaN	NaN	0	1e-07
0	-0.21503416	0.22706231	5.442669e-05	0.7014145	-0.70739007	-3.187807e-05	-0.7053759	0.706879	-3.8121761e-06	-0.28315803	0.15269782	0.0006346138	-0.25880256	0.25880256	0	NaN	NaN	NaN	NaN	NaN	NaN	0	1e-07
0	-0.21650992	0.2286315	8.187659e-05	0.7013517	-0.7073194	-3.448425e-05	-0.70539004	0.7068787	-3.7940224e-06	-0.2869009	0.15610537	0.0006549452	-0.2630448	0.2630448	0	NaN	NaN	NaN	NaN	NaN	NaN	0	1e-07
0	-0.21802816	0.23037715	5.889763e-05	0.6986827	-0.70265526	-3.3168297e-05	-0.7053951	0.70688725	-3.7426441e-06	-0.29004648	0.16018231	0.0006852122	-0.26728776	0.26728776	0	NaN	NaN	NaN	NaN	NaN	NaN	0	1e-07
0	-0.28539535	0.2970528	5.504435e-05	0.6984918	-0.7026782	-3.3235203e-05	-0.7056473	0.7066555	-3.646189e-06	-0.29769164	0.15988189	0.00064162485	-0.2715298	0.2715298	0	NaN	NaN	NaN	NaN	NaN	NaN	0	1e-07
0	-0.2871655	0.29810607	4.2588304e-05	0.6984761	-0.7025168	-3.3741853e-05	-0.7056641	0.7066518	-3.5542598e-06	-0.30530414	0.15957773	0.0005019526	-0.27577206	0.27577206	0	NaN	NaN	NaN	NaN	NaN	NaN	0	1e-07
0	-0.2886425	0.29944935	4.5363857e-05	0.6984659	-0.7023351	-3.5202796e-05	-0.7056768	0.7066521	-3.5448838e-06	-0.3096874	0.16244708	0.00053388526	-0.28001407	0.28001407	0	NaN	NaN	NaN	NaN	NaN	NaN	0	1e-07
0	-0.29064292	0.30033156	5.2611365e-05	0.69844633	-0.70214295	-4.4304674e-05	-0.70569426	0.7066475	-4.3470336e-06	-0.3199033	0.16008084	0.0006239318	-0.2842561	0.2842561	0	NaN	NaN	NaN	NaN	NaN	NaN	0	1e-07
0	-0.34994733	0.37533018	0.00016184962	-0.7085033	0.7041691	-2.9042238e-05	-0.70783687	0.70451075	-6.5339354e-06	-0.23524004	0.2568406	0.0018490618	-0.2884983	0.2884983	0	NaN	NaN	NaN	NaN	NaN	NaN	0	1e-07
0	-0.35050163	0.37763646	0.00019001873	-0.7084765	0.7042057	-2.8971263e-05	-0.7078318	0.70452845	-6.544346e-06	-0.22943638	0.27042356	0.0021647539	-0.2927411	0.2927411	0	NaN	NaN	NaN	NaN	NaN	NaN	0	1e-07
0	-0.4175961	0.44436136	0.00018603758	-0.7085041	0.7041883	-2.8409506e-05	-0.70774686	0.70462984	-6.4264964e-06	-0.23674132	0.27081057	0.0021192455	-0.29698333	0.29698333	0	NaN	NaN	NaN	NaN	NaN	NaN	0	1e-07
0	-0.41900763	0.44574872	0.00018345004	-0.70848846	0.70421326	-2.8023895e-05	-0.70775187	0.70463705	-6.3286957e-06	-0.24041246	0.27418363	0.0020897163	-0.30122533	0.30122533	0	NaN	NaN	NaN	NaN	NaN	NaN	0	1e-07
0	-0.4204174	0.44714206	0.00018102462	-0.7084729	0.704238	-2.7647333e-05	-0.70775676	0.7046443	-6.2333306e-06	-0.244074	0.27756995	0.002062014	-0.30547047	0.30547047	0	NaN	NaN	NaN	NaN	NaN	NaN	0	1e-07
0	-0.4218252	0.44854176	0.00017881543	-0.70845735	0.70426285	-2.7283164e-05	-0.70776147	0.70465153	-6.1399833e-06	-0.24772458	0.2809723	0.0020367538	-0.30971262	0.30971262	0	NaN	NaN	NaN	NaN	NaN	NaN	0	1e-07
0	-0.4232309	0.44994825	0.0001769301	-0.70844173	0.70428747	-2.6934425e-05	-0.70776594	0.7046589	-6.0506386e-06	-0.25136158	0.2843954	0.0020151427	-0.31395528	0.31395528	0	NaN	NaN	NaN	NaN	NaN	NaN	0	1e-07
0	-0.42463335	0.45136306	0.00017570375	-0.70842606	0.70431215	-2.6615187e-05	-0.7077704	0.7046663	-5.9684817e-06	-0.25497305	0.28785437	0.0020009654	-0.31819725	0.31819725	0	NaN	NaN	NaN	NaN	NaN	NaN	0	1e-07
0	-0.42323178	0.44994736	0.00017691909	-0.7084418	0.70428747	-2.6934054e-05	-0.707766	0.70465887	-6.05036e-06	-0.25137168	0.28438526	0.0020150193	-0.31395528	0.31395528	0	NaN	NaN	NaN	NaN	NaN	NaN	0	1e-07
0	-0.42182612	0.4485408	0.00017880653	-0.7084574	0.70426285	-2.7282415e-05	-0.70776147	0.7046516	-6.13994e-06	-0.24773504	0.28096184	0.0020366532	-0.30971262	0.30971262	0	NaN	NaN	NaN	NaN	NaN	NaN	0	1e-07
0	-0.4204182	0.44714114	0.00018101816	-0.7084729	0.704238	-2.7647779e-05	-0.70775676	0.7046443	-6.2332133e-06	-0.24408382	0.2775601	0.0020619433	-0.30547047	0.30547047	0	NaN	NaN	NaN	NaN	NaN	NaN	0	1e-07
0	-0.4190085	0.44574782	0.00018344534	-0.7084885	0.70421326	-2.8023482e-05	-0.7077519	0.70463705	-6.328803e-06	-0.24042217	0.274174	0.0020896643	-0.30122533	0.30122533	0	NaN	NaN	NaN	NaN	NaN	NaN	0	1e-07
0	-0.41759694	0.44436058	0.00018603427	-0.7085041	0.7041883	-2.8409246e-05	-0.707747	0.7046297	-6.4261235e-06	-0.2367509	0.27080116	0.0021192073	-0.29698333	0.29698333	0	NaN	NaN	NaN	NaN	NaN	NaN	0	1e-07
0	-0.41618365	0.4429792	0.00018874933	-0.70851964	0.7041632	-2.8801847e-05	-0.70774174	0.7046224	-6.525254e-06	-0.23307037	0.2674397	0.0021501735	-0.2927411	0.2927411	0	NaN	NaN	NaN	NaN	NaN	NaN	0	1e-07
0	-0.41476858	0.44160363	0.000191564	-0.7085353	0.704138	-2.919968e-05	-0.70773655	0.7046151	-6.6257053e-06	-0.22938092	0.26408827	0.0021822604	-0.2884983	0.2884983	0	NaN	NaN	NaN	NaN	NaN	NaN	0	1e-07
0	-0.41335177	0.44023362	0.00019445566	-0.7085508	0.70411277	-2.9601237e-05	-0.707731	0.7046079	-6.7264623e-06	-0.22568291	0.2607452	0.002215216	-0.2842561	0.2842561	0	NaN	NaN	NaN	NaN	NaN	NaN	0	1e-07
0	-0.4119333	0.43886915	0.00019740635	-0.7085665	0.7040873	-3.0004006e-05	-0.70772547	0.7046006	-6.8278596e-06	-0.2219768	0.2574089	0.0022488327	-0.28001407	0.28001407	0	NaN	NaN	NaN	NaN	NaN	NaN	0	1e-07
0	-0.41051325	0.43750983	0.00020039936	-0.7085821	0.70406187	-3.0408122e-05	-0.70771974	0.70459324	-6.929321e-06	-0.21826391	0.25407702	0.0022829243	-0.27577206	0.27577206	0	NaN	NaN	NaN	NaN	NaN	NaN	0	1e-07
0	-0.40909165	0.4361554	0.0002034206	-0.70859784	0.7040361	-3.080942e-05	-0.7077139	0.70458597	-7.029963e-06	-0.21454437	0.2507483	0.002317329	-0.2715298	0.2715298	0	NaN	NaN	NaN	NaN	NaN	NaN	0	1e-07
0	-0.4076684	0.43480572	0.00020645728	-0.7086136	0.7040103	-3.1206964e-05	-0.7077079	0.7045787	-7.1302356e-06	-0.21081842	0.24742125	0.0023519027	-0.26728776	0.26728776	0	NaN	NaN	NaN	NaN	NaN	NaN	0	1e-07
0	-0.40624383	0.43346062	0.00020949815	-0.70862937	0.70398426	-3.1598247e-05	-0.70770174	0.7045713	-7.229209e-06	-0.20708738	0.2440935	0.002386518	-0.2630448	0.2630448	0	NaN	NaN	NaN	NaN	NaN	NaN	0	1e-07
0	-0.40481773	0.43211967	0.00021253346	-0.7086453	0.70395815	-3.198246e-05	-0.7076955	0.704564	-7.3272768e-06	-0.20335084	0.24076398	0.0024210606	-0.25880256	0.25880256	0	NaN	NaN	NaN	NaN	NaN	NaN	0	1e-07
0	-0.4033902	0.43078277	0.00021555487	-0.70866126	0.7039318	-3.2355514e-05	-0.7076889	0.7045567	-7.4220507e-06	-0.19960958	0.23743054	0.0024554357	-0.25455675	0.25455675	0	NaN	NaN	NaN	NaN	NaN	NaN	0	1e-07
0	-0.40196145	0.42944953	0.0002185572	-0.70867723	0.70390517	-3.2714644e-05	-0.7076824	0.70454925	-7.514194e-06	-0.19586483	0.23409058	0.00248958	-0.2503146	0.2503146	0	NaN	NaN	NaN	NaN	NaN	NaN	0	1e-07
0	-0.4005314	0.42811957	0.00022154105	-0.70869344	0.7038784	-3.3057782e-05	-0.7076757	0.70454186	-7.602951e-06	-0.19211847	0.23074085	0.0025235016	-0.24607232	0.24607232	0	NaN	NaN	NaN	NaN	NaN	NaN	0	1e-07
0	-0.3991008	0.42679217	0.00022451713	-0.70870966	0.7038515	-3.3383567e-05	-0.70766884	0.70453435	-7.688746e-06	-0.18837598	0.22737542	0.0025573194	-0.2418294	0.2418294	0	NaN	NaN	NaN	NaN	NaN	NaN	0	1e-07
0	-0.39767063	0.4254662	0.00022750757	-0.708726	0.7038243	-3.369022e-05	-0.70766187	0.7045267	-7.772086e-06	-0.18465059	0.22398105	0.0025912835	-0.23758711	0.23758711	0	NaN	NaN	NaN	NaN	NaN	NaN	0	1e-07
0	-0.39624304	0.42413953	0.00023054329	-0.7087425	0.7037967	-3.3979453e-05	-0.70765483	0.70451915	-7.853792e-06	-0.1809643	0.22053556	0.0026257492	-0.23334505	0.23334505	0	NaN	NaN	NaN	NaN	NaN	NaN	0	1e-07
0	-0.39482415	0.42280516	0.00023371713	-0.70875925	0.70376885	-3.4248937e-05	-0.7076478	0.70451117	-7.934116e-06	-0.17738636	0.21696223	0.0026617541	-0.22910298	0.22910298	0	NaN	NaN	NaN	NaN	NaN	NaN	0	1e-07
0	-0.3935777	0.42126775	0.00023012035	-0.7087786	0.7037382	-3.4418612e-05	-0.7076431	0.7045009	-7.990279e-06	-0.17573589	0.21107724	0.0026218272	-0.2248607	0.2248607	0	NaN	NaN	NaN	NaN	NaN	NaN	0	1e-07
0	-0.39214477	0.41995388	0.00023298238	-0.7087953	0.7037101	-3.4686607e-05	-0.70763576	0.7044929	-8.072796e-06	-0.17202576	0.20765264	0.002654356	-0.2206187	0.2206187	0	NaN	NaN	NaN	NaN	NaN	NaN	0	1e-07
0	-0.3907056	0.41864824	0.00023606818	-0.70881194	0.703682	-3.498492e-05	-0.70762813	0.7044851	-8.161532e-06	-0.16825873	0.20428026	0.002689423	-0.21637549	0.21637549	0	NaN	NaN	NaN	NaN	NaN	NaN	0	1e-07
0	-0.38908356	0.41750145	0.00023950612	-0.7088264	0.7036559	-3.5331122e-05	-0.7076183	0.70447934	-8.254879e-06	-0.16247219	0.20264795	0.0027284375	-0.21213318	0.21213318	0	NaN	NaN	NaN	NaN	NaN	NaN	0	1e-07
0	-0.38762638	0.41621625	0.00024192665	-0.7088428	0.70362777	-3.5677112e-05	-0.7076101	0.7044718	-8.351143e-06	-0.15852946	0.1994293	0.0027560994	-0.20788802	0.20788802	0	NaN	NaN	NaN	NaN	NaN	NaN	0	1e-07
0	-0.38616276	0.41493902	0.00024437558	-0.7088591	0.7035995	-3.6040485e-05	-0.7076015	0.7044644	-8.450132e-06	-0.15452842	0.19626456	0.0027840931	-0.20364597	0.20364597	0	NaN	NaN	NaN	NaN	NaN	NaN	0	1e-07
0	-0.38469285	0.41366953	0.00024683683	-0.7088754	0.7035713	-3.6417154e-05	-0.70759255	0.704457	-8.550608e-06	-0.15047024	0.1931516	0.0028122377	-0.19940366	0.19940366	0	NaN	NaN	NaN	NaN	NaN	NaN	0	1e-07
0	-0.38321847	0.41240588	0.00024928304	-0.7088917	0.7035428	-3.6803973e-05	-0.70758337	0.70444965	-8.653248e-06	-0.14637558	0.19006893	0.0028402214	-0.1951605	0.1951605	0	NaN	NaN	NaN	NaN	NaN	NaN	0	1e-07
0	-0.38174114	0.41114625	0.0002516867	-0.7089079	0.7035143	-3.719902e-05	-0.70757407	0.70444226	-8.757937e-06	-0.14226145	0.18699904	0.0028677362	-0.19091812	0.19091812	0	NaN	NaN	NaN	NaN	NaN	NaN	0	1e-07
0	-0.38026056	0.40989074	0.0002540304	-0.70892423	0.70348555	-3.7601138e-05	-0.7075645	0.70443493	-8.862797e-06	-0.1381249	0.18394318	0.0028945867	-0.18667604	0.18667604	0	NaN	NaN	NaN	NaN	NaN	NaN	0	1e-07
0	-0.37877446	0.40864113	0.00025630917	-0.7089406	0.70345664	-3.8010632e-05	-0.7075547	0.7044276	-8.969773e-06	-0.13394152	0.18092225	0.0029207116	-0.18243395	0.18243395	0	NaN	NaN	NaN	NaN	NaN	NaN	0	1e-07
0	-0.37726352	0.40741482	0.00025852048	-0.7089566	0.7034278	-3.842495e-05	-0.7075445	0.70442045	-9.076522e-06	-0.12949528	0.17813219	0.0029460853	-0.1781916	0.1781916	0	NaN	NaN	NaN	NaN	NaN	NaN	0	1e-07
0	-0.37558213	0.4063442	0.00026032052	-0.70897084	0.7034009	-3.8843347e-05	-0.7075323	0.704415	-9.1804e-06	-0.1231697	0.17705454	0.0029668352	-0.17394815	0.17394815	0	NaN	NaN	NaN	NaN	NaN	NaN	0	1e-07
0	-0.37408045	0.4051124	0.00026230313	-0.7089871	0.70337147	-3.9262875e-05	-0.7075218	0.70440763	-9.28799e-06	-0.11885611	0.17414534	0.0029896488	-0.16970597	0.16970597	0	NaN	NaN	NaN	NaN	NaN	NaN	0	1e-07
0	-0.37250394	0.40395156	0.00026319496	-0.70900214	0.7033432	-3.968478e-05	-0.7075097	0.7044016	-9.389813e-06	-0.11372636	0.172002	0.0030002154	-0.16546357	0.16546357	0	NaN	NaN	NaN	NaN	NaN	NaN	0	1e-07
0	-0.37098035	0.40274054	0.00026468988	-0.7090184	0.7033138	-4.0102437e-05	-0.70749843	0.7043945	-9.494465e-06	-0.109200165	0.16927066	0.003017554	-0.16121967	0.16121967	0	NaN	NaN	NaN	NaN	NaN	NaN	0	1e-07
0	-0.36947408	0.4015138	0.00026619615	-0.7090348	0.7032837	-4.051716e-05	-0.7074872	0.7043871	-9.5977075e-06	-0.104882345	0.16633804	0.0030350147	-0.15697764	0.15697764	0	NaN	NaN	NaN	NaN	NaN	NaN	0	1e-07
0	-0.36797532	0.40028027	0.00026768498	-0.7090516	0.7032534	-4.0926407e-05	-0.707476	0.7043795	-9.7007005e-06	-0.10066368	0.1633046	0.0030522768	-0.15273523	0.15273523	0	NaN	NaN	NaN	NaN	NaN	NaN	0	1e-07
0	-0.3664813	0.39904225	0.0002692439	-0.70906854	0.7032225	-4.133053e-05	-0.7074645	0.70437163	-9.802199e-06	-0.09651356	0.16019675	0.0030703198	-0.14849167	0.14849167	0	NaN	NaN	NaN	NaN	NaN	NaN	0	1e-07
0	-0.36499387	0.39779767	0.00027096382	-0.7090857	0.7031913	-4.172294e-05	-0.7074532	0.70436364	-9.90163e-06	-0.0924534	0.15699163	0.003090154	-0.14424916	0.14424916	0	NaN	NaN	NaN	NaN	NaN	NaN	0	1e-07
0	-0.36352158	0.3965368	0.00027299902	-0.70910317	0.7031596	-4.2091167e-05	-0.70744175	0.7043554	-9.997993e-06	-0.088579156	0.15358204	0.0031134998	-0.14000703	0.14000703	0	NaN	NaN	NaN	NaN	NaN	NaN	0	1e-07
0	-0.36205783	0.39526492	0.00027544436	-0.70912135	0.70312715	-4.237676e-05	-0.70743036	0.70434666	-1.0083157e-05	-0.08481666	0.1500279	0.0031413825	-0.1357649	0.1357649	0	NaN	NaN	NaN	NaN	NaN	NaN	0	1e-07
0	-0.36066908	0.39389902	0.0002772054	-0.709143	0.70309067	-4.1775944e-05	-0.7074221	0.7043347	-1.0039824e-05	-0.08190386	0.14540698	0.003161005	-0.1315224	0.1315224	0	NaN	NaN	NaN	NaN	NaN	NaN	0	1e-07
0	-0.35916087	0.3926683	0.00027935742	-0.7091605	0.7030585	-4.2068266e-05	-0.7074092	0.7043269	-1.0120619e-05	-0.07768358	0.14227046	0.0031855819	-0.12727837	0.12727837	0	NaN	NaN	NaN	NaN	NaN	NaN	0	1e-07
0	-0.3576414	0.3914477	0.00028166265	-0.70917785	0.7030261	-4.2391035e-05	-0.70739585	0.70431936	-1.0205059e-05	-0.07335657	0.13922773	0.0032118843	-0.12303616	0.12303616	0	NaN	NaN	NaN	NaN	NaN	NaN	0	1e-07
0	-0.35612375	0.39022565	0.0002839219	-0.7091954	0.7029935	-4.2741583e-05	-0.7073825	0.70431155	-1.0295579e-05	-0.069069095	0.13614962	0.0032376891	-0.118793555	0.118793555	0	NaN	NaN	NaN	NaN	NaN	NaN	0	1e-07
0	-0.3546246	0.3889862	0.00028579045	-0.7092134	0.70296025	-4.3091324e-05	-0.7073695	0.70430297	-1.0388329e-05	-0.06500683	0.13286015	0.0032591424	-0.11455149	0.11455149	0	NaN	NaN	NaN	NaN	NaN	NaN	0	1e-07
0	-0.35315317	0.38771555	0.00028709957	-0.70923233	0.7029257	-4.3375123e-05	-0.70735747	0.7042931	-1.0470668e-05	-0.06127181	0.12920564	0.0032742964	-0.11030935	0.11030935	0	NaN	NaN	NaN	NaN	NaN	NaN	0	1e-07
0	-0.35164762	0.38648045	0.00028860447	-0.70925045	0.70289177	-4.3742806e-05	-0.70734406	0.70428425	-1.05634135e-05	-0.05717782	0.12592986	0.0032916693	-0.10606659	0.10606659	0	NaN	NaN	NaN	NaN	NaN	NaN	0	1e-07
0	-0.3501369	0.38525197	0.00029046217	-0.7092683	0.7028581	-4.415316e-05	-0.70733	0.70427567	-1.0663438e-05	-0.05304703	0.12271143	0.0033130231	-0.10182299	0.10182299	0	NaN	NaN	NaN	NaN	NaN	NaN	0	1e-07
0	-0.34884325	0.38377875	0.00029106595	-0.70929	0.70282	-4.4430457e-05	-0.70731944	0.70426327	-1.0734967e-05	-0.051349968	0.116742305	0.0033201606	-0.09758025	0.09758025	0	NaN	NaN	NaN	NaN	NaN	NaN	0	1e-07
0	-0.34736001	0.3825098	0.0002942094	-0.7093089	0.70278484	-4.4872606e-05	-0.7073056	0.70425385	-1.084535e-05	-0.047566444	0.113041	0.0033559373	-0.09333802	0.09333802	0	NaN	NaN	NaN	NaN	NaN	NaN	0	1e-07
0	-0.34584686	0.381283	0.0002958876	-0.7093268	0.7027502	-4.5297802e-05	-0.70729077	0.7042449	-1.094786e-05	-0.043473996	0.1097966	0.003375287	-0.0890958	0.0890958	0	NaN	NaN	NaN	NaN	NaN	NaN	0	1e-07
0	-0.34433424	0.38005608	0.0002975122	-0.7093448	0.70271546	-4.5735982e-05	-0.7072756	0.70423603	-1.1052195e-05	-0.039409745	0.106537685	0.00339404	-0.084852986	0.084852986	0	NaN	NaN	NaN	NaN	NaN	NaN	0	1e-07
0	-0.34282088	0.37882957	0.00029913266	-0.70936286	0.7026803	-4.6186404e-05	-0.7072601	0.7042271	-1.115835e-05	-0.035360135	0.10327068	0.0034127512	-0.080609836	0.080609836	0	NaN	NaN	NaN	NaN	NaN	NaN	0	1e-07
0	-0.34130526	0.3776044	0.00030074388	-0.709381	0.70264494	-4.6641882e-05	-0.7072442	0.7042181	-1.1264174e-05	-0.031308476	0.10000456	0.003431354	-0.07636762	0.07636762	0	NaN	NaN	NaN	NaN	NaN	NaN	0	1e-07
0	-0.339808	0.37635657	0.00030267757	-0.70939964	0.7026087	-4.7127094e-05	-0.70722854	0.7042084	-1.1377898e-05	-0.027484989	0.09647566	0.0034535986	-0.07212458	0.07212458	0	NaN	NaN	NaN	NaN	NaN	NaN	0	1e-07
0	-0.3383072	0.3751088	0.00030552715	-0.7094183	0.70257235	-4.7615147e-05	-0.7072123	0.7041989	-1.1492709e-05	-0.023646006	0.09293524	0.0034861104	-0.06788245	0.06788245	0	NaN	NaN	NaN	NaN	NaN	NaN	0	1e-07
0	-0.33676308	0.37390304	0.00030787502	-0.70943624	0.7025364	-4.8094505e-05	-0.7071951	0.70418996	-1.1603939e-05	-0.019350948	0.0898549	0.0035130004	-0.06363919	0.06363919	0	NaN	NaN	NaN	NaN	NaN	NaN	0	1e-07
0	-0.3352256	0.37269038	0.00031026505	-0.7094544	0.7024999	-4.858148e-05	-0.7071777	0.70418066	-1.171724e-05	-0.015155642	0.086687885	0.0035403732	-0.059396777	0.059396777	0	NaN	NaN	NaN	NaN	NaN	NaN	0	1e-07
0	-0.33369753	0.37146848	0.0003124765	-0.7094729	0.70246303	-4.9070815e-05	-0.7071602	0.70417106	-1.1830655e-05	-0.011090154	0.08340837	0.0035657405	-0.055154674	0.055154674	0	NaN	NaN	NaN	NaN	NaN	NaN	0	1e-07
0	-0.33218956	0.37021992	0.00031517196	-0.70949167	0.70242536	-4.95708e-05	-0.7071425	0.70416117	-1.1947286e-05	-0.007274914	0.07982184	0.0035965333	-0.050911494	0.050911494	0	NaN	NaN	NaN	NaN	NaN	NaN	0	1e-07
0	-0.33063555	0.36901402	0.00031789145	-0.70950985	0.70238805	-5.0054805e-05	-0.7071235	0.70415205	-1.205866e-05	-0.0029749826	0.07670497	0.003627576	-0.04666901	0.04666901	0	NaN	NaN	NaN	NaN	NaN	NaN	0	1e-07
0	-0.32891732	0.36793196	0.00031644048	-0.70952606	0.7023529	-4.9911712e-05	-0.70709735	0.70414954	-1.1984135e-05	0.0031184084	0.074959904	0.0036108769	-0.042426493	0.042426493	0	NaN	NaN	NaN	NaN	NaN	NaN	0	1e-07
0	-0.3273809	0.3667006	0.00031805845	-0.70954496	0.70231444	-5.0316758e-05	-0.7070779	0.7041399	-1.2072084e-05	0.0071672876	0.07154394	0.0036294442	-0.03818381	0.03818381	0	NaN	NaN	NaN	NaN	NaN	NaN	0	1e-07
0	-0.32584825	0.3654654	0.00032038725	-0.7095641	0.70227545	-5.0755676e-05	-0.7070584	0.70412976	-1.21695075e-05	0.011145821	0.06808043	0.0036560379	-0.033941224	0.033941224	0	NaN	NaN	NaN	NaN	NaN	NaN	0	1e-07
0	-0.3243207	0.36421904	0.00032295383	-0.70958316	0.70223606	-5.119405e-05	-0.7070385	0.7041194	-1.2268383e-05	0.015037054	0.06448687	0.0036853082	-0.029698389	0.029698389	0	NaN	NaN	NaN	NaN	NaN	NaN	0	1e-07