# t (s)	mx ()	my ()	mz ()	m.region32x ()	m.region32y ()	m.region32z ()	m.region33x ()	m.region33y ()	m.region33z ()	m.region34x ()	m.region34y ()	m.region34z ()	B_extx (T)	B_exty (T)	B_extz (T)	B_eff.region6x (T)	B_eff.region6y (T)	B_eff.region6z (T)	B_eff.region9x (T)	B_eff.region9y (T)	B_eff.region9z (T)	step_x (No unit)	step_y (No unit)
0	-0.99986047	1.7487906e-08	3.2904873e-11	-0.99986047	1.7487906e-08	3.2904873e-11	NaN	NaN	NaN	NaN	NaN	NaN	0	0	0	NaN	NaN	NaN	NaN	NaN	NaN	0	1e-07
0	-0.99985075	1.064393e-10	-7.163419e-13	-0.99985075	1.064393e-10	-7.1634235e-13	NaN	NaN	NaN	NaN	NaN	NaN	0.039999973	0	0	NaN	NaN	NaN	NaN	NaN	NaN	0	1e-07
0	-0.99983966	-3.0550495e-10	2.539119e-13	-0.99983966	-3.0550495e-10	2.539119e-13	NaN	NaN	NaN	NaN	NaN	NaN	0.079999946	0	0	NaN	NaN	NaN	NaN	NaN	NaN	0	1e-07
0	-0.99982655	-2.5153213e-10	-1.5040574e-10	-0.9998265	-2.5153213e-10	-1.5040574e-10	NaN	NaN	NaN	NaN	NaN	NaN	0.11999989	0	0	NaN	NaN	NaN	NaN	NaN	NaN	0	1e-07
0	-0.9998113	2.4172664e-10	-1.0225273e-10	-0.99981123	2.4172664e-10	-1.0225273e-10	NaN	NaN	NaN	NaN	NaN	NaN	0.15999989	0	0	NaN	NaN	NaN	NaN	NaN	NaN	0	1e-07
0	-0.999793	2.1429969e-11	-3.3656605e-11	-0.99979293	2.1429969e-11	-3.3656602e-11	NaN	NaN	NaN	NaN	NaN	NaN	0.20000018	0	0	NaN	NaN	NaN	NaN	NaN	NaN	0	1e-07
0	-0.99977064	-8.401457e-11	6.997974e-11	-0.9997705	-8.401457e-11	6.997973e-11	NaN	NaN	NaN	NaN	NaN	NaN	0.23999979	0	0	NaN	NaN	NaN	NaN	NaN	NaN	0	1e-07
0	-0.99974275	2.6165026e-10	1.0186673e-11	-0.99974275	2.6165026e-10	1.01866736e-11	NaN	NaN	NaN	NaN	NaN	NaN	0.28000018	0	0	NaN	NaN	NaN	NaN	NaN	NaN	0	1e-07
0	-0.99970675	1.2846613e-10	-7.6214875e-11	-0.9997067	1.2846613e-10	-7.6214875e-11	NaN	NaN	NaN	NaN	NaN	NaN	0.31999978	0	0	NaN	NaN	NaN	NaN	NaN	NaN	0	1e-07
0	-0.99965817	-1.7382717e-10	-2.9949956e-11	-0.99965817	-1.7382717e-10	-2.9949956e-11	NaN	NaN	NaN	NaN	NaN	NaN	0.36000034	0	0	NaN	NaN	NaN	NaN	NaN	NaN	0	1e-07
0	-0.9995889	3.6234837e-10	-2.3344943e-10	-0.9995889	3.6234837e-10	-2.3344943e-10	NaN	NaN	NaN	NaN	NaN	NaN	0.40000036	0	0	NaN	NaN	NaN	NaN	NaN	NaN	0	1e-07
0	-0.9994794	5.687184e-11	-2.2737518e-11	-0.9994794	5.687184e-11	-2.2737517e-11	NaN	NaN	NaN	NaN	NaN	NaN	0.43999952	0	0	NaN	NaN	NaN	NaN	NaN	NaN	0	1e-07
0	-0.99926585	-1.2141754e-10	9.666861e-11	-0.99926585	-1.2141754e-10	9.666861e-11	NaN	NaN	NaN	NaN	NaN	NaN	0.47999957	0	0	NaN	NaN	NaN	NaN	NaN	NaN	0	1e-07
0	0.99992555	-2.059224e-09	1.5493e-11	0.9999255	-2.059224e-09	1.5493e-11	NaN	NaN	NaN	NaN	NaN	NaN	0.5200003	0	0	NaN	NaN	NaN	NaN	NaN	NaN	0	1e-07
0	0.9999282	2.4201086e-11	-4.06682e-11	0.9999282	2.4201086e-11	-4.0668198e-11	NaN	NaN	NaN	NaN	NaN	NaN	0.56000036	0	0	NaN	NaN	NaN	NaN	NaN	NaN	0	1e-07
0	0.99993074	1.2342127e-10	4.4974618e-11	0.99993074	1.2342127e-10	4.4974614e-11	NaN	NaN	NaN	NaN	NaN	NaN	0.59999925	0	0	NaN	NaN	NaN	NaN	NaN	NaN	0	1e-07
0	0.999933	-1.1286261e-10	1.5959277e-11	0.999933	-1.1286261e-10	1.5959277e-11	NaN	NaN	NaN	NaN	NaN	NaN	0.63999957	0	0	NaN	NaN	NaN	NaN	NaN	NaN	0	1e-07
0	0.99993527	-1.03852926e-10	4.129611e-11	0.99993527	-1.03852926e-10	4.1296112e-11	NaN	NaN	NaN	NaN	NaN	NaN	0.68000025	0	0	NaN	NaN	NaN	NaN	NaN	NaN	0	1e-07
0	0.99993634	-1.15946364e-10	2.1087111e-11	0.9999363	-1.15946364e-10	2.1087108e-11	NaN	NaN	NaN	NaN	NaN	NaN	0.69999945	0	0	NaN	NaN	NaN	NaN	NaN	NaN	0	1e-07
0	0.9999342	1.2420287e-11	2.9303525e-11	0.9999342	1.2420287e-11	2.9303525e-11	NaN	NaN	NaN	NaN	NaN	NaN	0.6600008	0	0	NaN	NaN	NaN	NaN	NaN	NaN	0	1e-07
0	0.9999319	4.175149e-11	3.072758e-11	0.99993193	4.175149e-11	3.072758e-11	NaN	NaN	NaN	NaN	NaN	NaN	0.6200003	0	0	NaN	NaN	NaN	NaN	NaN	NaN	0	1e-07
0	0.99993074	1.4176749e-10	2.9190705e-11	0.9999307	1.4176749e-10	2.9190705e-11	NaN	NaN	NaN	NaN	NaN	NaN	0.59999925	0	0	NaN	NaN	NaN	NaN	NaN	NaN	0	1e-07
0	0.9999295	4.1012527e-11	3.493872e-11	0.9999295	4.1012527e-11	3.493872e-11	NaN	NaN	NaN	NaN	NaN	NaN	0.58000094	0	0	NaN	NaN	NaN	NaN	NaN	NaN	0	1e-07
0	0.99992824	4.9141136e-11	-6.415997e-11	0.9999282	4.9141136e-11	-6.415997e-11	NaN	NaN	NaN	NaN	NaN	NaN	0.56000036	0	0	NaN	NaN	NaN	NaN	NaN	NaN	0	1e-07
0	0.99992687	-9.0196295e-11	3.795718e-11	0.99992687	-9.0196295e-11	3.795718e-11	NaN	NaN	NaN	NaN	NaN	NaN	0.5400007	0	0	NaN	NaN	NaN	NaN	NaN	NaN	0	1e-07
0	0.99992555	-7.410961e-11	3.294868e-11	0.99992555	-7.410961e-11	3.294868e-11	NaN	NaN	NaN	NaN	NaN	NaN	0.5200003	0	0	NaN	NaN	NaN	NaN	NaN	NaN	0	1e-07
0	0.99992406	2.5721647e-11	-8.799206e-12	0.99992406	2.5721647e-11	-8.799206e-12	NaN	NaN	NaN	NaN	NaN	NaN	0.5	0	0	NaN	NaN	NaN	NaN	NaN	NaN	0	1e-07
0	0.99992263	1.4320278e-10	-4.0091666e-11	0.99992263	1.4320278e-10	-4.0091666e-11	NaN	NaN	NaN	NaN	NaN	NaN	0.47999957	0	0	NaN	NaN	NaN	NaN	NaN	NaN	0	1e-07
0	0.9999211	-2.9842795e-12	-3.1878018e-11	0.9999212	-2.9842795e-12	-3.1878018e-11	NaN	NaN	NaN	NaN	NaN	NaN	0.45999935	0	0	NaN	NaN	NaN	NaN	NaN	NaN	0	1e-07
0	0.99991953	-7.912604e-11	-7.70355e-12	0.99991953	-7.912604e-11	-7.703549e-12	NaN	NaN	NaN	NaN	NaN	NaN	0.43999952	0	0	NaN	NaN	NaN	NaN	NaN	NaN	0	1e-07
0	0.999918	1.0254553e-10	-5.1067848e-11	0.999918	1.0254553e-10	-5.1067848e-11	NaN	NaN	NaN	NaN	NaN	NaN	0.41999933	0	0	NaN	NaN	NaN	NaN	NaN	NaN	0	1e-07
0	0.9999163	7.446488e-11	-7.469361e-11	0.9999162	7.446488e-11	-7.469361e-11	NaN	NaN	NaN	NaN	NaN	NaN	0.40000036	0	0	NaN	NaN	NaN	NaN	NaN	NaN	0	1e-07
0	0.9999145	3.0513547e-10	1.7539225e-11	0.9999145	3.0513547e-10	1.7539225e-11	NaN	NaN	NaN	NaN	NaN	NaN	0.3800001	0	0	NaN	NaN	NaN	NaN	NaN	NaN	0	1e-07
0	0.99991274	1.7577406e-10	-2.4264488e-11	0.99991274	1.7577406e-10	-2.4264486e-11	NaN	NaN	NaN	NaN	NaN	NaN	0.36000034	0	0	NaN	NaN	NaN	NaN	NaN	NaN	0	1e-07
0	0.99991083	9.7685415e-11	-6.35492e-11	0.99991083	9.7685415e-11	-6.35492e-11	NaN	NaN	NaN	NaN	NaN	NaN	0.34000012	0	0	NaN	NaN	NaN	NaN	NaN	NaN	0	1e-07
0	0.99990886	2.738716e-10	9.989892e-11	0.9999088	2.738716e-10	9.989892e-11	NaN	NaN	NaN	NaN	NaN	NaN	0.31999978	0	0	NaN	NaN	NaN	NaN	NaN	NaN	0	1e-07
0	0.9999068	-1.5546675e-11	7.01957e-11	0.9999068	-1.5546675e-11	7.01957e-11	NaN	NaN	NaN	NaN	NaN	NaN	0.29999962	0	0	NaN	NaN	NaN	NaN	NaN	NaN	0	1e-07
0	0.9999046	-9.495693e-11	-3.0527796e-11	0.99990463	-9.495693e-11	-3.0527796e-11	NaN	NaN	NaN	NaN	NaN	NaN	0.28000018	0	0	NaN	NaN	NaN	NaN	NaN	NaN	0	1e-07
0	0.99990237	-8.7197805e-11	1.8083356e-11	0.99990237	-8.7197805e-11	1.8083353e-11	NaN	NaN	NaN	NaN	NaN	NaN	0.26000014	0	0	NaN	NaN	NaN	NaN	NaN	NaN	0	1e-07
0	0.9999	2.6273028e-10	-1.3920155e-10	0.99990004	2.6273028e-10	-1.3920155e-10	NaN	NaN	NaN	NaN	NaN	NaN	0.23999979	0	0	NaN	NaN	NaN	NaN	NaN	NaN	0	1e-07
0	0.99989766	-8.242296e-11	-3.1360504e-11	0.99989766	-8.242296e-11	-3.1360504e-11	NaN	NaN	NaN	NaN	NaN	NaN	0.21999976	0	0	NaN	NaN	NaN	NaN	NaN	NaN	0	1e-07
0	0.99989504	1.4409807e-10	-2.5664082e-11	0.99989504	1.4409807e-10	-2.5664082e-11	NaN	NaN	NaN	NaN	NaN	NaN	0.20000018	0	0	NaN	NaN	NaN	NaN	NaN	NaN	0	1e-07
0	0.99989235	-1.2857981e-10	7.3721716e-11	0.99989235	-1.2857981e-10	7.3721716e-11	NaN	NaN	NaN	NaN	NaN	NaN	0.18000017	0	0	NaN	NaN	NaN	NaN	NaN	NaN	0	1e-07
0	0.9998895	-2.989964e-11	3.6541072e-11	0.99988955	-2.989964e-11	3.654107e-11	NaN	NaN	NaN	NaN	NaN	NaN	0.15999989	0	0	NaN	NaN	NaN	NaN	NaN	NaN	0	1e-07
0	0.9998866	-4.9510618e-11	6.332953e-12	0.99988663	-4.9510618e-11	6.332953e-12	NaN	NaN	NaN	NaN	NaN	NaN	0.14000009	0	0	NaN	NaN	NaN	NaN	NaN	NaN	0	1e-07
0	0.9998834	1.2235546e-10	3.0734713e-11	0.9998834	1.2235546e-10	3.0734713e-11	NaN	NaN	NaN	NaN	NaN	NaN	0.11999989	0	0	NaN	NaN	NaN	NaN	NaN	NaN	0	1e-07
0	0.9998801	6.502887e-11	-1.4679054e-10	0.9998801	6.502887e-11	-1.4679054e-10	NaN	NaN	NaN	NaN	NaN	NaN	0.10000009	0	0	NaN	NaN	NaN	NaN	NaN	NaN	0	1e-07
0	0.9998767	6.966161e-11	-1.1255832e-10	0.9998767	6.966161e-11	-1.1255831e-10	NaN	NaN	NaN	NaN	NaN	NaN	0.079999946	0	0	NaN	NaN	NaN	NaN	NaN	NaN	0	1e-07
0	0.9998729	3.1587888e-10	-2.930408e-11	0.9998729	3.1587888e-10	-2.930408e-11	NaN	NaN	NaN	NaN	NaN	NaN	0.059999947	0	0	NaN	NaN	NaN	NaN	NaN	NaN	0	1e-07
0	0.99986905	-6.630785e-11	4.2441845e-11	0.99986905	-6.630785e-11	4.2441845e-11	NaN	NaN	NaN	NaN	NaN	NaN	0.039999973	0	0	NaN	NaN	NaN	NaN	NaN	NaN	0	1e-07
0	0.99986494	-2.9558578e-12	-1.1256368e-11	0.99986494	-2.9558578e-12	-1.1256367e-11	NaN	NaN	NaN	NaN	NaN	NaN	0.019999987	0	0	NaN	NaN	NaN	NaN	NaN	NaN	0	1e-07
0	0.9998605	-2.3334223e-11	-2.7364451e-11	0.9998605	-2.3334223e-11	-2.7364451e-11	NaN	NaN	NaN	NaN	NaN	NaN	-2.8449465e-16	0	0	NaN	NaN	NaN	NaN	NaN	NaN	0	1e-07
0	0.9998558	1.2454393e-10	-2.5837082e-11	0.9998559	1.2454393e-10	-2.5837084e-11	NaN	NaN	NaN	NaN	NaN	NaN	-0.019999987	0	0	NaN	NaN	NaN	NaN	NaN	NaN	0	1e-07
0	0.99985075	-1.8280844e-10	-1.27541675e-11	0.99985075	-1.8280844e-10	-1.27541675e-11	NaN	NaN	NaN	NaN	NaN	NaN	-0.039999973	0	0	NaN	NaN	NaN	NaN	NaN	NaN	0	1e-07
0	0.9998454	-9.549694e-12	-8.484448e-11	0.9998454	-9.549694e-12	-8.4844486e-11	NaN	NaN	NaN	NaN	NaN	NaN	-0.059999947	0	0	NaN	NaN	NaN	NaN	NaN	NaN	0	1e-07
0	0.99983966	2.682441e-10	-3.509739e-11	0.99983966	2.682441e-10	-3.509739e-11	NaN	NaN	NaN	NaN	NaN	NaN	-0.079999946	0	0	NaN	NaN	NaN	NaN	NaN	NaN	0	1e-07
0	0.9998333	2.801812e-10	1.0817322e-10	0.99983335	2.801812e-10	1.0817322e-10	NaN	NaN	NaN	NaN	NaN	NaN	-0.10000009	0	0	NaN	NaN	NaN	NaN	NaN	NaN	0	1e-07
0	0.99982655	1.8096102e-10	1.1624968e-10	0.99982655	1.8096102e-10	1.1624968e-10	NaN	NaN	NaN	NaN	NaN	NaN	-0.11999989	0	0	NaN	NaN	NaN	NaN	NaN	NaN	0	1e-07
0	0.9998193	7.503331e-11	2.4805479e-11	0.9998193	7.503331e-11	2.4805477e-11	NaN	NaN	NaN	NaN	NaN	NaN	-0.14000009	0	0	NaN	NaN	NaN	NaN	NaN	NaN	0	1e-07
0	0.99981123	-1.5404567e-10	9.1984656e-11	0.9998113	-1.5404567e-10	9.1984656e-11	NaN	NaN	NaN	NaN	NaN	NaN	-0.15999989	0	0	NaN	NaN	NaN	NaN	NaN	NaN	0	1e-07
0	0.99980253	5.7099214e-11	-1.5243548e-10	0.99980253	5.7099214e-11	-1.524355e-10	NaN	NaN	NaN	NaN	NaN	NaN	-0.18000017	0	0	NaN	NaN	NaN	NaN	NaN	NaN	0	1e-07
0	0.99979293	-7.31859e-11	3.5363885e-11	0.999793	-7.31859e-11	3.5363885e-11	NaN	NaN	NaN	NaN	NaN	NaN	-0.20000018	0	0	NaN	NaN	NaN	NaN	NaN	NaN	0	1e-07
0	0.99978244	-4.322942e-11	5.8205983e-12	0.99978244	-4.322942e-11	5.8205983e-12	NaN	NaN	NaN	NaN	NaN	NaN	-0.21999976	0	0	NaN	NaN	NaN	NaN	NaN	NaN	0	1e-07
0	0.99977064	1.3227464e-10	-3.2027804e-11	0.9997706	1.3227464e-10	-3.20278e-11	NaN	NaN	NaN	NaN	NaN	NaN	-0.23999979	0	0	NaN	NaN	NaN	NaN	NaN	NaN	0	1e-07
0	0.99975747	1.3358203e-12	-3.7328904e-11	0.99975747	1.3358203e-12	-3.7328904e-11	NaN	NaN	NaN	NaN	NaN	NaN	-0.26000014	0	0	NaN	NaN	NaN	NaN	NaN	NaN	0	1e-07
0	0.99974275	-2.7438318e-10	-6.4621794e-11	0.9997428	-2.7438318e-10	-6.4621794e-11	NaN	NaN	NaN	NaN	NaN	NaN	-0.28000018	0	0	NaN	NaN	NaN	NaN	NaN	NaN	0	1e-07
0	0.99972594	-1.679723e-11	-4.8778703e-11	0.99972594	-1.679723e-11	-4.8778703e-11	NaN	NaN	NaN	NaN	NaN	NaN	-0.29999962	0	0	NaN	NaN	NaN	NaN	NaN	NaN	0	1e-07
0	0.99970675	-9.5013775e-11	8.538254e-11	0.99970675	-9.5013775e-11	8.538254e-11	NaN	NaN	NaN	NaN	NaN	NaN	-0.31999978	0	0	NaN	NaN	NaN	NaN	NaN	NaN	0	1e-07
0	0.9996844	-1.6765966e-10	-5.576876e-11	0.99968445	-1.6765966e-10	-5.5768765e-11	NaN	NaN	NaN	NaN	NaN	NaN	-0.34000012	0	0	NaN	NaN	NaN	NaN	NaN	NaN	0	1e-07
0	0.9996582	3.0965452e-10	1.6336214e-11	0.9996582	3.0965452e-10	1.6336212e-11	NaN	NaN	NaN	NaN	NaN	NaN	-0.36000034	0	0	NaN	NaN	NaN	NaN	NaN	NaN	0	1e-07
0	0.99962705	-5.1471716e-11	-6.7483144e-11	0.99962705	-5.1471716e-11	-6.748315e-11	NaN	NaN	NaN	NaN	NaN	NaN	-0.3800001	0	0	NaN	NaN	NaN	NaN	NaN	NaN	0	1e-07
0	0.99958897	2.9243097e-10	-9.007125e-12	0.99958897	2.9243097e-10	-9.007124e-12	NaN	NaN	NaN	NaN	NaN	NaN	-0.40000036	0	0	NaN	NaN	NaN	NaN	NaN	NaN	0	1e-07
0	0.99954134	1.4011903e-10	5.983201e-11	0.9995413	1.4011903e-10	5.983201e-11	NaN	NaN	NaN	NaN	NaN	NaN	-0.41999933	0	0	NaN	NaN	NaN	NaN	NaN	NaN	0	1e-07
0	0.9994794	1.480771e-11	-3.1270292e-11	0.9994794	1.480771e-11	-3.1270292e-11	NaN	NaN	NaN	NaN	NaN	NaN	-0.43999952	0	0	NaN	NaN	NaN	NaN	NaN	NaN	0	1e-07
0	0.9993944	2.9137937e-10	6.333702e-11	0.9993944	2.9137937e-10	6.333703e-11	NaN	NaN	NaN	NaN	NaN	NaN	-0.45999935	0	0	NaN	NaN	NaN	NaN	NaN	NaN	0	1e-07
0	0.99926585	2.9331204e-11	-1.5734525e-10	0.99926585	2.9331204e-11	-1.5734525e-10	NaN	NaN	NaN	NaN	NaN	NaN	-0.47999957	0	0	NaN	NaN	NaN	NaN	NaN	NaN	0	1e-07
0	0.9990207	4.1177373e-10	-3.8281447e-11	0.9990207	4.1177373e-10	-3.8281447e-11	NaN	NaN	NaN	NaN	NaN	NaN	-0.5	0	0	NaN	NaN	NaN	NaN	NaN	NaN	0	1e-07
0	-0.9999255	2.4760993e-10	-3.6513133e-11	-0.99992543	2.4760993e-10	-3.6513133e-11	NaN	NaN	NaN	NaN	NaN	NaN	-0.5200003	0	0	NaN	NaN	NaN	NaN	NaN	NaN	0	1e-07
0	-0.99992687	1.03995035e-10	-6.510244e-11	-0.99992687	1.03995035e-10	-6.510244e-11	NaN	NaN	NaN	NaN	NaN	NaN	-0.5400007	0	0	NaN	NaN	NaN	NaN	NaN	NaN	0	1e-07
0	-0.99992824	-8.398615e-12	4.6297785e-11	-0.9999282	-8.398615e-12	4.629778e-11	NaN	NaN	NaN	NaN	NaN	NaN	-0.56000036	0	0	NaN	NaN	NaN	NaN	NaN	NaN	0	1e-07
0	-0.9999295	-3.1846525e-11	-1.6020851e-11	-0.9999295	-3.1846525e-11	-1.6020853e-11	NaN	NaN	NaN	NaN	NaN	NaN	-0.58000094	0	0	NaN	NaN	NaN	NaN	NaN	NaN	0	1e-07
0	-0.99993074	-2.5731595e-10	-8.438123e-11	-0.99993074	-2.5731595e-10	-8.438123e-11	NaN	NaN	NaN	NaN	NaN	NaN	-0.59999925	0	0	NaN	NaN	NaN	NaN	NaN	NaN	0	1e-07
0	-0.9999295	-2.9814373e-11	3.7006603e-11	-0.9999295	-2.9814373e-11	3.7006603e-11	NaN	NaN	NaN	NaN	NaN	NaN	-0.58000094	0	0	NaN	NaN	NaN	NaN	NaN	NaN	0	1e-07
0	-0.99992824	-2.6986413e-11	5.788426e-11	-0.9999281	-2.6986413e-11	5.7884267e-11	NaN	NaN	NaN	NaN	NaN	NaN	-0.56000036	0	0	NaN	NaN	NaN	NaN	NaN	NaN	0	1e-07
0	-0.99992687	4.2760462e-11	3.9662405e-12	-0.99992687	4.2760462e-11	3.966241e-12	NaN	NaN	NaN	NaN	NaN	NaN	-0.5400007	0	0	NaN	NaN	NaN	NaN	NaN	NaN	0	1e-07
0	-0.9999255	6.041034e-11	-6.5998483e-12	-0.9999255	6.041034e-11	-6.599848e-12	NaN	NaN	NaN	NaN	NaN	NaN	-0.5200003	0	0	NaN	NaN	NaN	NaN	NaN	NaN	0	1e-07
0	-0.99992406	-5.4484417e-11	7.881001e-11	-0.9999241	-5.4484417e-11	7.881002e-11	NaN	NaN	NaN	NaN	NaN	NaN	-0.5	0	0	NaN	NaN	NaN	NaN	NaN	NaN	0	1e-07
0	-0.99992263	-1.407301e-10	3.968039e-11	-0.9999226	-1.407301e-10	3.968039e-11	NaN	NaN	NaN	NaN	NaN	NaN	-0.47999957	0	0	NaN	NaN	NaN	NaN	NaN	NaN	0	1e-07
0	-0.9999212	8.1072926e-11	1.0161641e-12	-0.9999212	8.1072926e-11	1.0161641e-12	NaN	NaN	NaN	NaN	NaN	NaN	-0.45999935	0	0	NaN	NaN	NaN	NaN	NaN	NaN	0	1e-07
0	-0.99991953	-4.736478e-11	6.3487067e-12	-0.99991953	-4.736478e-11	6.3487067e-12	NaN	NaN	NaN	NaN	NaN	NaN	-0.43999952	0	0	NaN	NaN	NaN	NaN	NaN	NaN	0	1e-07
0	-0.999918	-1.0885515e-10	9.834721e-11	-0.9999179	-1.0885515e-10	9.834721e-11	NaN	NaN	NaN	NaN	NaN	NaN	-0.41999933	0	0	NaN	NaN	NaN	NaN	NaN	NaN	0	1e-07
0	-0.99991626	-8.4867224e-11	1.039887e-10	-0.99991626	-8.4867224e-11	1.0398869e-10	NaN	NaN	NaN	NaN	NaN	NaN	-0.40000036	0	0	NaN	NaN	NaN	NaN	NaN	NaN	0	1e-07
0	-0.9999145	-1.7976731e-10	-5.454525e-11	-0.9999145	-1.7976731e-10	-5.454525e-11	NaN	NaN	NaN	NaN	NaN	NaN	-0.3800001	0	0	NaN	NaN	NaN	NaN	NaN	NaN	0	1e-07
0	-0.9999126	1.6910917e-10	-8.4816106e-11	-0.9999126	1.6910917e-10	-8.481611e-11	NaN	NaN	NaN	NaN	NaN	NaN	-0.36000034	0	0	NaN	NaN	NaN	NaN	NaN	NaN	0	1e-07
0	-0.99991083	-7.469225e-11	3.515397e-11	-0.99991083	-7.469225e-11	3.5153973e-11	NaN	NaN	NaN	NaN	NaN	NaN	-0.34000012	0	0	NaN	NaN	NaN	NaN	NaN	NaN	0	1e-07
0	-0.9999088	-2.0440893e-10	-7.248401e-11	-0.99990886	-2.0440893e-10	-7.2484005e-11	NaN	NaN	NaN	NaN	NaN	NaN	-0.31999978	0	0	NaN	NaN	NaN	NaN	NaN	NaN	0	1e-07
0	-0.9999068	6.670575e-11	-5.0114933e-11	-0.9999068	6.670575e-11	-5.0114933e-11	NaN	NaN	NaN	NaN	NaN	NaN	-0.29999962	0	0	NaN	NaN	NaN	NaN	NaN	NaN	0	1e-07
0	-0.99990463	1.03312914e-10	3.0529454e-11	-0.99990463	1.03312914e-10	3.052945e-11	NaN	NaN	NaN	NaN	NaN	NaN	-0.28000018	0	0	NaN	NaN	NaN	NaN	NaN	NaN	0	1e-07
0	-0.99990237	5.5592864e-11	-6.0157414e-11	-0.99990237	5.5592864e-11	-6.0157414e-11	NaN	NaN	NaN	NaN	NaN	NaN	-0.26000014	0	0	NaN	NaN	NaN	NaN	NaN	NaN	0	1e-07
0	-0.9999	-1.6854074e-10	-5.766142e-12	-0.9999001	-1.6854074e-10	-5.766142e-12	NaN	NaN	NaN	NaN	NaN	NaN	-0.23999979	0	0	NaN	NaN	NaN	NaN	NaN	NaN	0	1e-07
0	-0.9998976	-3.9648285e-11	2.4800832e-11	-0.9998976	-3.9648285e-11	2.4800832e-11	NaN	NaN	NaN	NaN	NaN	NaN	-0.21999976	0	0	NaN	NaN	NaN	NaN	NaN	NaN	0	1e-07
0	-0.99989504	-4.754952e-11	3.6718746e-11	-0.9998951	-4.754952e-11	3.671875e-11	NaN	NaN	NaN	NaN	NaN	NaN	-0.20000018	0	0	NaN	NaN	NaN	NaN	NaN	NaN	0	1e-07
0	-0.99989235	1.4784973e-10	-6.376632e-11	-0.99989235	1.4784973e-10	-6.376632e-11	NaN	NaN	NaN	NaN	NaN	NaN	-0.18000017	0	0	NaN	NaN	NaN	NaN	NaN	NaN	0	1e-07
0	-0.9998895	-3.0837555e-11	-1.2974385e-10	-0.9998896	-3.0837555e-11	-1.2974384e-10	NaN	NaN	NaN	NaN	NaN	NaN	-0.15999989	0	0	NaN	NaN	NaN	NaN	NaN	NaN	0	1e-07
0	-0.9998866	5.5649707e-11	-1.9946104e-11	-0.99988663	5.5649707e-11	-1.9946104e-11	NaN	NaN	NaN	NaN	NaN	NaN	-0.14000009	0	0	NaN	NaN	NaN	NaN	NaN	NaN	0	1e-07
0	-0.9998834	-2.0543212e-10	9.8840804e-11	-0.9998834	-2.0543212e-10	9.8840804e-11	NaN	NaN	NaN	NaN	NaN	NaN	-0.11999989	0	0	NaN	NaN	NaN	NaN	NaN	NaN	0	1e-07
0	-0.9998801	-5.9912963e-11	1.2643045e-10	-0.99988014	-5.9912963e-11	1.2643046e-10	NaN	NaN	NaN	NaN	NaN	NaN	-0.10000009	0	0	NaN	NaN	NaN	NaN	NaN	NaN	0	1e-07
0	-0.9998766	4.092726e-12	4.0283943e-11	-0.9998767	4.092726e-12	4.0283943e-11	NaN	NaN	NaN	NaN	NaN	NaN	-0.079999946	0	0	NaN	NaN	NaN	NaN	NaN	NaN	0	1e-07
0	-0.9998729	-2.8668978e-10	2.7714105e-11	-0.9998729	-2.8668978e-10	2.7714102e-11	NaN	NaN	NaN	NaN	NaN	NaN	-0.059999947	0	0	NaN	NaN	NaN	NaN	NaN	NaN	0	1e-07
0	-0.99986905	-9.606538e-12	-5.5667495e-11	-0.99986905	-9.606538e-12	-5.5667495e-11	NaN	NaN	NaN	NaN	NaN	NaN	-0.039999973	0	0	NaN	NaN	NaN	NaN	NaN	NaN	0	1e-07
0	-0.9998649	-8.100187e-12	6.836675e-14	-0.99986494	-8.100187e-12	6.836675e-14	NaN	NaN	NaN	NaN	NaN	NaN	-0.019999987	0	0	NaN	NaN	NaN	NaN	NaN	NaN	0	1e-07
0	-0.99986047	5.2580162e-12	3.6738737e-12	-0.9998605	5.2580162e-12	3.673873e-12	NaN	NaN	NaN	NaN	NaN	NaN	2.8449465e-16	0	0	NaN	NaN	NaN	NaN	NaN	NaN	0	1e-07
0	-0.99985576	-1.8218316e-10	4.3432643e-11	-0.9998558	-1.8218316e-10	4.3432643e-11	NaN	NaN	NaN	NaN	NaN	NaN	0.019999987	0	0	NaN	NaN	NaN	NaN	NaN	NaN	0	1e-07
0	-0.99985075	9.407586e-12	4.3232497e-11	-0.99985075	9.407586e-12	4.3232494e-11	NaN	NaN	NaN	NaN	NaN	NaN	0.039999973	0	0	NaN	NaN	NaN	NaN	NaN	NaN	0	1e-07
0	-0.9998454	3.2173375e-11	9.752699e-11	-0.9998454	3.2173375e-11	9.752699e-11	NaN	NaN	NaN	NaN	NaN	NaN	0.059999947	0	0	NaN	NaN	NaN	NaN	NaN	NaN	0	1e-07
0	-0.99983966	-3.0775027e-10	-5.450254e-12	-0.99983966	-3.0775027e-10	-5.450254e-12	NaN	NaN	NaN	NaN	NaN	NaN	0.079999946	0	0	NaN	NaN	NaN	NaN	NaN	NaN	0	1e-07
0	-0.9998333	-3.6453685e-10	-1.2861524e-11	-0.9998334	-3.6453685e-10	-1.28615235e-11	NaN	NaN	NaN	NaN	NaN	NaN	0.10000009	0	0	NaN	NaN	NaN	NaN	NaN	NaN	0	1e-07
0	-0.9998265	-5.6417093e-11	-4.8896755e-11	-0.99982655	-5.6417093e-11	-4.8896755e-11	NaN	NaN	NaN	NaN	NaN	NaN	0.11999989	0	0	NaN	NaN	NaN	NaN	NaN	NaN	0	1e-07
0	-0.9998193	-9.015366e-11	5.5866384e-11	-0.9998193	-9.015366e-11	5.5866388e-11	NaN	NaN	NaN	NaN	NaN	NaN	0.14000009	0	0	NaN	NaN	NaN	NaN	NaN	NaN	0	1e-07
0	-0.9998113	1.5560886e-10	-7.7642906e-11	-0.9998113	1.5560886e-10	-7.7642906e-11	NaN	NaN	NaN	NaN	NaN	NaN	0.15999989	0	0	NaN	NaN	NaN	NaN	NaN	NaN	0	1e-07
0	-0.99980253	-1.00698117e-10	4.5113753e-11	-0.99980253	-1.00698117e-10	4.511375e-11	NaN	NaN	NaN	NaN	NaN	NaN	0.18000017	0	0	NaN	NaN	NaN	NaN	NaN	NaN	0	1e-07
0	-0.999793	2.8538238e-10	6.328831e-11	-0.99979293	2.8538238e-10	6.328831e-11	NaN	NaN	NaN	NaN	NaN	NaN	0.20000018	0	0	NaN	NaN	NaN	NaN	NaN	NaN	0	1e-07
0	-0.99978244	-3.0894398e-10	2.0041063e-10	-0.9997824	-3.0894398e-10	2.0041063e-10	NaN	NaN	NaN	NaN	NaN	NaN	0.21999976	0	0	NaN	NaN	NaN	NaN	NaN	NaN	0	1e-07
0	-0.99977064	-2.8811087e-10	4.633143e-11	-0.99977064	-2.8811087e-10	4.6331425e-11	NaN	NaN	NaN	NaN	NaN	NaN	0.23999979	0	0	NaN	NaN	NaN	NaN	NaN	NaN	0	1e-07
0	-0.99975747	6.369305e-11	8.563716e-12	-0.99975747	6.369305e-11	8.563716e-12	NaN	NaN	NaN	NaN	NaN	NaN	0.26000014	0	0	NaN	NaN	NaN	NaN	NaN	NaN	0	1e-07
0	-0.9997428	2.661409e-10	2.2283585e-11	-0.99974275	2.661409e-10	2.2283585e-11	NaN	NaN	NaN	NaN	NaN	NaN	0.28000018	0	0	NaN	NaN	NaN	NaN	NaN	NaN	0	1e-07
0	-0.9997259	-4.5361048e-11	-3.2035583e-11	-0.9997259	-4.5361048e-11	-3.2035583e-11	NaN	NaN	NaN	NaN	NaN	NaN	0.29999962	0	0	NaN	NaN	NaN	NaN	NaN	NaN	0	1e-07
0	-0.9997067	-2.9217517e-11	-2.0731765e-11	-0.99970675	-2.9217517e-11	-2.0731767e-11	NaN	NaN	NaN	NaN	NaN	NaN	0.31999978	0	0	NaN	NaN	NaN	NaN	NaN	NaN	0	1e-07
0	-0.9996844	1.3955059e-11	8.628464e-12	-0.99968445	1.3955059e-11	8.628464e-12	NaN	NaN	NaN	NaN	NaN	NaN	0.34000012	0	0	NaN	NaN	NaN	NaN	NaN	NaN	0	1e-07
0	-0.9996582	-2.852687e-10	3.781695e-11	-0.9996582	-2.852687e-10	3.7816947e-11	NaN	NaN	NaN	NaN	NaN	NaN	0.36000034	0	0	NaN	NaN	NaN	NaN	NaN	NaN	0	1e-07
0	-0.999627	-3.6857273e-10	4.088045e-11	-0.999627	-3.6857273e-10	4.0880445e-11	NaN	NaN	NaN	NaN	NaN	NaN	0.3800001	0	0	NaN	NaN	NaN	NaN	NaN	NaN	0	1e-07
0	-0.99958897	8.796519e-11	-9.1219955e-11	-0.9995889	8.796519e-11	-9.121996e-11	NaN	NaN	NaN	NaN	NaN	NaN	0.40000036	0	0	NaN	NaN	NaN	NaN	NaN	NaN	0	1e-07
0	-0.99954134	-1.7951152e-10	-1.0308254e-10	-0.9995413	-1.7951152e-10	-1.0308254e-10	NaN	NaN	NaN	NaN	NaN	NaN	0.41999933	0	0	NaN	NaN	NaN	NaN	NaN	NaN	0	1e-07
0	-0.9994794	8.401457e-11	-1.8604642e-11	-0.9994794	8.401457e-11	-1.8604642e-11	NaN	NaN	NaN	NaN	NaN	NaN	0.43999952	0	0	NaN	NaN	NaN	NaN	NaN	NaN	0	1e-07
0	-0.99939436	-1.9815616e-10	-7.4628e-11	-0.9993944	-1.9815616e-10	-7.462799e-11	NaN	NaN	NaN	NaN	NaN	NaN	0.45999935	0	0	NaN	NaN	NaN	NaN	NaN	NaN	0	1e-07
0	-0.99926585	-2.1856295e-10	1.6449744e-10	-0.99926585	-2.1856295e-10	1.6449744e-10	NaN	NaN	NaN	NaN	NaN	NaN	0.47999957	0	0	NaN	NaN	NaN	NaN	NaN	NaN	0	1e-07
0	-0.99902076	-1.632543e-10	6.811975e-11	-0.99902076	-1.632543e-10	6.811975e-11	NaN	NaN	NaN	NaN	NaN	NaN	0.5	0	0	NaN	NaN	NaN	NaN	NaN	NaN	0	1e-07
0	0.9999255	-6.678974e-09	1.0016968e-11	0.9999255	-6.678974e-09	1.0016968e-11	NaN	NaN	NaN	NaN	NaN	NaN	0.5200003	0	0	NaN	NaN	NaN	NaN	NaN	NaN	0	1e-07
0	0.9999269	1.1695533e-11	3.1670586e-11	0.9999269	1.1695533e-11	3.1670586e-11	NaN	NaN	NaN	NaN	NaN	NaN	0.5400007	0	0	NaN	NaN	NaN	NaN	NaN	NaN	0	1e-07
0	0.99992824	2.8236968e-11	-9.9565134e-11	0.9999282	2.8236968e-11	-9.9565134e-11	NaN	NaN	NaN	NaN	NaN	NaN	0.56000036	0	0	NaN	NaN	NaN	NaN	NaN	NaN	0	1e-07
0	0.9999295	1.9042545e-12	3.2979617e-12	0.9999295	1.9042545e-12	3.2979617e-12	NaN	NaN	NaN	NaN	NaN	NaN	0.58000094	0	0	NaN	NaN	NaN	NaN	NaN	NaN	0	1e-07
0	0.9999295	1.9042545e-12	3.2979617e-12	0.9999203	-1.424576e-11	5.735181e-12	NaN	NaN	NaN	NaN	NaN	NaN	0.58000094	0	0	1.294925	-1.4243757e-09	-5.697503e-09	NaN	NaN	NaN	0	1e-07
0	0.9999295	1.9042545e-12	3.2979617e-12	0.9999203	-1.424576e-11	5.73518e-12	NaN	NaN	NaN	NaN	NaN	NaN	0.58000094	0	0	1.088775	-2.8487515e-09	-5.149666e-09	NaN	NaN	NaN	3.5135135e-09	1e-07
0	0.9999295	1.9042545e-12	3.2979617e-12	0.99991924	3.1914296e-09	-1.1239759e-10	NaN	NaN	NaN	NaN	NaN	NaN	0.58000094	0	0	1.0882527	0.00028892563	-1.0047327e-07	0.6707687	1.6569682e-06	-0.0023037447	3.5135135e-09	5e-08
0	0.9999295	1.9042545e-12	3.2979617e-12	0.9999192	3.3176102e-09	-1.1372218e-10	NaN	NaN	NaN	NaN	NaN	NaN	0.58000094	0	0	1.0882037	0.00030128	-1.0715688e-07	0.7057761	1.716026e-06	-0.0037547841	3.5135135e-09	5.2727273e-08
