# t (s)	mx ()	my ()	mz ()	m.region32x ()	m.region32y ()	m.region32z ()	m.region33x ()	m.region33y ()	m.region33z ()	m.region34x ()	m.region34y ()	m.region34z ()	B_extx (T)	B_exty (T)	B_extz (T)	B_eff.region6x (T)	B_eff.region6y (T)	B_eff.region6z (T)	B_eff.region9x (T)	B_eff.region9y (T)	B_eff.region9z (T)	step_x (No unit)	step_y (No unit)
0	-0.0016868344	0.0055209044	-0.0030585548	-0.0016868344	0.0055209044	-0.0030585546	NaN	NaN	NaN	NaN	NaN	NaN	0	0	0	NaN	NaN	NaN	NaN	NaN	NaN	0	1e-07
0	0.9699515	-0.007481311	-5.980837e-09	0.9699515	-0.0074813105	-5.984475e-09	NaN	NaN	NaN	NaN	NaN	NaN	0.039999966	0	0	NaN	NaN	NaN	NaN	NaN	NaN	0	1e-07
0	0.98968726	-7.861729e-06	-6.664891e-11	0.98968726	-7.861729e-06	-6.653522e-11	NaN	NaN	NaN	NaN	NaN	NaN	0.07999993	0	0	NaN	NaN	NaN	NaN	NaN	NaN	0	1e-07
0	0.99138784	-2.3362081e-06	-8.924417e-12	0.99138784	-2.3362081e-06	-8.98126e-12	NaN	NaN	NaN	NaN	NaN	NaN	0.120000355	0	0	NaN	NaN	NaN	NaN	NaN	NaN	0	1e-07
0	0.99273515	-1.407001e-06	-7.4066975e-11	0.99273515	-1.407001e-06	-7.401013e-11	NaN	NaN	NaN	NaN	NaN	NaN	0.15999986	0	0	NaN	NaN	NaN	NaN	NaN	NaN	0	1e-07
0	0.9938311	-6.1385924e-07	-1.00513375e-10	0.99383116	-6.1385924e-07	-1.00513375e-10	NaN	NaN	NaN	NaN	NaN	NaN	0.2000005	0	0	NaN	NaN	NaN	NaN	NaN	NaN	0	1e-07
0	0.9947402	-1.5416606e-07	3.2418512e-11	0.9947402	-1.5416606e-07	3.242917e-11	NaN	NaN	NaN	NaN	NaN	NaN	0.24000071	0	0	NaN	NaN	NaN	NaN	NaN	NaN	0	1e-07
0	0.9955056	-3.3941205e-09	3.5278447e-11	0.9955056	-3.3941205e-09	3.527134e-11	NaN	NaN	NaN	NaN	NaN	NaN	0.27999946	0	0	NaN	NaN	NaN	NaN	NaN	NaN	0	1e-07
0	0.99614745	-3.6720849e-10	-1.448786e-10	0.9961475	-3.6720849e-10	-1.4487858e-10	NaN	NaN	NaN	NaN	NaN	NaN	0.31999972	0	0	NaN	NaN	NaN	NaN	NaN	NaN	0	1e-07
0	0.9966705	-3.3145398e-10	-1.3310039e-10	0.9966705	-3.3145398e-10	-1.3310039e-10	NaN	NaN	NaN	NaN	NaN	NaN	0.36000043	0	0	NaN	NaN	NaN	NaN	NaN	NaN	0	1e-07
0	0.99711573	5.7571015e-10	-2.0690054e-10	0.99711573	5.7571015e-10	-2.0690055e-10	NaN	NaN	NaN	NaN	NaN	NaN	0.400001	0	0	NaN	NaN	NaN	NaN	NaN	NaN	0	1e-07
0	0.9974956	5.2870064e-10	-2.5629276e-11	0.9974956	5.2870064e-10	-2.5629271e-11	NaN	NaN	NaN	NaN	NaN	NaN	0.44000074	0	0	NaN	NaN	NaN	NaN	NaN	NaN	0	1e-07
0	0.9978196	-1.1925749e-10	1.664265e-10	0.99781954	-1.1925749e-10	1.6642651e-10	NaN	NaN	NaN	NaN	NaN	NaN	0.48000142	0	0	NaN	NaN	NaN	NaN	NaN	NaN	0	1e-07
0	0.99809545	3.0564706e-10	-4.0933156e-11	0.99809545	3.0564706e-10	-4.093316e-11	NaN	NaN	NaN	NaN	NaN	NaN	0.5199987	0	0	NaN	NaN	NaN	NaN	NaN	NaN	0	1e-07
0	0.99832934	2.9177727e-10	-1.0290276e-10	0.99832934	2.9177727e-10	-1.0290276e-10	NaN	NaN	NaN	NaN	NaN	NaN	0.5599989	0	0	NaN	NaN	NaN	NaN	NaN	NaN	0	1e-07
0	0.99852693	7.452172e-11	-8.7246606e-11	0.998527	7.452172e-11	-8.7246606e-11	NaN	NaN	NaN	NaN	NaN	NaN	0.60000014	0	0	NaN	NaN	NaN	NaN	NaN	NaN	0	1e-07
0	0.9986933	5.8787464e-10	4.705932e-13	0.9986933	5.8787464e-10	4.7059405e-13	NaN	NaN	NaN	NaN	NaN	NaN	0.63999945	0	0	NaN	NaN	NaN	NaN	NaN	NaN	0	1e-07
0	0.99883306	-2.2100721e-10	-6.6767286e-11	0.99883306	-2.2100721e-10	-6.6767286e-11	NaN	NaN	NaN	NaN	NaN	NaN	0.67999834	0	0	NaN	NaN	NaN	NaN	NaN	NaN	0	1e-07
0	0.99889445	-1.2664714e-10	2.8120197e-12	0.99889445	-1.2664714e-10	2.8120197e-12	NaN	NaN	NaN	NaN	NaN	NaN	0.6999983	0	0	NaN	NaN	NaN	NaN	NaN	NaN	0	1e-07
0	0.99876624	5.148877e-10	-1.738995e-11	0.99876624	5.148877e-10	-1.738995e-11	NaN	NaN	NaN	NaN	NaN	NaN	0.66000223	0	0	NaN	NaN	NaN	NaN	NaN	NaN	0	1e-07
0	0.9986138	-4.6691184e-10	8.7383545e-11	0.9986138	-4.6691184e-10	8.7383545e-11	NaN	NaN	NaN	NaN	NaN	NaN	0.61999995	0	0	NaN	NaN	NaN	NaN	NaN	NaN	0	1e-07
0	0.99852693	1.653575e-10	-1.3839374e-10	0.99852705	1.653575e-10	-1.3839374e-10	NaN	NaN	NaN	NaN	NaN	NaN	0.60000014	0	0	NaN	NaN	NaN	NaN	NaN	NaN	0	1e-07
0	0.9984324	4.172307e-10	-2.346521e-10	0.99843246	4.172307e-10	-2.346521e-10	NaN	NaN	NaN	NaN	NaN	NaN	0.5800014	0	0	NaN	NaN	NaN	NaN	NaN	NaN	0	1e-07
0	0.99832934	-4.3053205e-10	-7.584639e-11	0.9983294	-4.3053205e-10	-7.5846385e-11	NaN	NaN	NaN	NaN	NaN	NaN	0.5599989	0	0	NaN	NaN	NaN	NaN	NaN	NaN	0	1e-07
0	0.99821734	1.0743406e-11	-8.3103e-11	0.99821734	1.0743406e-11	-8.3103004e-11	NaN	NaN	NaN	NaN	NaN	NaN	0.54000026	0	0	NaN	NaN	NaN	NaN	NaN	NaN	0	1e-07
0	0.9980954	3.7857717e-11	-2.2670872e-10	0.99809545	3.7857717e-11	-2.2670872e-10	NaN	NaN	NaN	NaN	NaN	NaN	0.5199987	0	0	NaN	NaN	NaN	NaN	NaN	NaN	0	1e-07
0	0.9979632	1.43757e-10	-7.692665e-11	0.9979632	1.43757e-10	-7.692665e-11	NaN	NaN	NaN	NaN	NaN	NaN	0.5	0	0	NaN	NaN	NaN	NaN	NaN	NaN	0	1e-07
0	0.99781966	-7.617018e-11	-2.6863307e-11	0.9978196	-7.617018e-11	-2.6863307e-11	NaN	NaN	NaN	NaN	NaN	NaN	0.48000142	0	0	NaN	NaN	NaN	NaN	NaN	NaN	0	1e-07
0	0.9976641	5.445031e-10	4.0361672e-11	0.9976641	5.445031e-10	4.0361676e-11	NaN	NaN	NaN	NaN	NaN	NaN	0.45999926	0	0	NaN	NaN	NaN	NaN	NaN	NaN	0	1e-07
0	0.99749565	1.9974777e-10	2.1521496e-11	0.99749565	1.9974777e-10	2.1521498e-11	NaN	NaN	NaN	NaN	NaN	NaN	0.44000074	0	0	NaN	NaN	NaN	NaN	NaN	NaN	0	1e-07
0	0.9973133	1.6478907e-10	5.7400557e-11	0.9973133	1.6478907e-10	5.7400553e-11	NaN	NaN	NaN	NaN	NaN	NaN	0.4199987	0	0	NaN	NaN	NaN	NaN	NaN	NaN	0	1e-07
0	0.99711573	3.058176e-10	-1.4921367e-10	0.99711585	3.058176e-10	-1.4921367e-10	NaN	NaN	NaN	NaN	NaN	NaN	0.400001	0	0	NaN	NaN	NaN	NaN	NaN	NaN	0	1e-07
0	0.99690205	-6.3096195e-11	1.564261e-10	0.99690205	-6.3096195e-11	1.5642607e-10	NaN	NaN	NaN	NaN	NaN	NaN	0.37999928	0	0	NaN	NaN	NaN	NaN	NaN	NaN	0	1e-07
0	0.9966705	2.0008883e-11	-2.269267e-11	0.9966705	2.0008883e-11	-2.269267e-11	NaN	NaN	NaN	NaN	NaN	NaN	0.36000043	0	0	NaN	NaN	NaN	NaN	NaN	NaN	0	1e-07
0	0.99641967	-4.4479975e-10	1.7191204e-10	0.99641967	-4.4479975e-10	1.7191204e-10	NaN	NaN	NaN	NaN	NaN	NaN	0.33999917	0	0	NaN	NaN	NaN	NaN	NaN	NaN	0	1e-07
0	0.9961475	4.956746e-11	-2.0438304e-10	0.9961475	4.956746e-11	-2.0438304e-10	NaN	NaN	NaN	NaN	NaN	NaN	0.31999972	0	0	NaN	NaN	NaN	NaN	NaN	NaN	0	1e-07
0	0.9958519	-3.5697667e-11	6.9359754e-11	0.9958519	-3.5697667e-11	6.935977e-11	NaN	NaN	NaN	NaN	NaN	NaN	0.30000007	0	0	NaN	NaN	NaN	NaN	NaN	NaN	0	1e-07
0	0.99553037	-3.2417802e-10	-1.09799635e-10	0.99553025	-3.2417802e-10	-1.0979963e-10	NaN	NaN	NaN	NaN	NaN	NaN	0.27999946	0	0	NaN	NaN	NaN	NaN	NaN	NaN	0	1e-07
0	0.99517983	7.6278184e-10	9.238063e-11	0.99517983	7.6278184e-10	9.238063e-11	NaN	NaN	NaN	NaN	NaN	NaN	0.25999936	0	0	NaN	NaN	NaN	NaN	NaN	NaN	0	1e-07
0	0.9947968	-7.844392e-11	1.8633378e-10	0.9947968	-7.844392e-11	1.863338e-10	NaN	NaN	NaN	NaN	NaN	NaN	0.24000071	0	0	NaN	NaN	NaN	NaN	NaN	NaN	0	1e-07
0	0.9943772	-3.5873882e-10	6.9612496e-11	0.99437714	-3.5873882e-10	6.9612496e-11	NaN	NaN	NaN	NaN	NaN	NaN	0.22000037	0	0	NaN	NaN	NaN	NaN	NaN	NaN	0	1e-07
0	0.99391603	8.412826e-11	4.6514056e-11	0.99391603	8.412826e-11	4.6514053e-11	NaN	NaN	NaN	NaN	NaN	NaN	0.2000005	0	0	NaN	NaN	NaN	NaN	NaN	NaN	0	1e-07
0	0.99340737	-1.8098945e-10	-4.7210888e-11	0.99340737	-1.8098945e-10	-4.7210888e-11	NaN	NaN	NaN	NaN	NaN	NaN	0.18000022	0	0	NaN	NaN	NaN	NaN	NaN	NaN	0	1e-07
0	0.9927352	-1.6398758e-09	-2.2961544e-10	0.99273515	-1.6398758e-09	-2.2961544e-10	NaN	NaN	NaN	NaN	NaN	NaN	0.15999986	0	0	NaN	NaN	NaN	NaN	NaN	NaN	0	1e-07
0	0.9920982	-1.5409682e-09	6.941292e-11	0.9920982	-1.5409682e-09	6.941292e-11	NaN	NaN	NaN	NaN	NaN	NaN	0.13999973	0	0	NaN	NaN	NaN	NaN	NaN	NaN	0	1e-07
0	0.99138784	-1.1239081e-09	-5.938361e-11	0.99138784	-1.1239081e-09	-5.938361e-11	NaN	NaN	NaN	NaN	NaN	NaN	0.120000355	0	0	NaN	NaN	NaN	NaN	NaN	NaN	0	1e-07
0	0.9905902	-1.4086936e-09	-1.5401369e-10	0.9905902	-1.4086936e-09	-1.5401369e-10	NaN	NaN	NaN	NaN	NaN	NaN	0.10000025	0	0	NaN	NaN	NaN	NaN	NaN	NaN	0	1e-07
0	0.9896874	-1.0275585e-09	-4.4607873e-11	0.9896873	-1.0275585e-09	-4.4607873e-11	NaN	NaN	NaN	NaN	NaN	NaN	0.07999993	0	0	NaN	NaN	NaN	NaN	NaN	NaN	0	1e-07
0	0.98865515	7.2930106e-10	1.3888979e-10	0.98865515	7.2930106e-10	1.3888979e-10	NaN	NaN	NaN	NaN	NaN	NaN	0.060000177	0	0	NaN	NaN	NaN	NaN	NaN	NaN	0	1e-07
0	0.9874601	-2.3750886e-09	-7.479173e-11	0.9874601	-2.3750886e-09	-7.479173e-11	NaN	NaN	NaN	NaN	NaN	NaN	0.039999966	0	0	NaN	NaN	NaN	NaN	NaN	NaN	0	1e-07
0	0.98551035	-4.3862087e-09	-2.6290081e-11	0.98551035	-4.3862087e-09	-2.6290081e-11	NaN	NaN	NaN	NaN	NaN	NaN	0.019999983	0	0	NaN	NaN	NaN	NaN	NaN	NaN	0	1e-07
0	0.9827445	-7.607298e-09	3.2656544e-11	0.9827444	-7.607298e-09	3.2656544e-11	NaN	NaN	NaN	NaN	NaN	NaN	-2.8449465e-16	0	0	NaN	NaN	NaN	NaN	NaN	NaN	0	1e-07
0	0.9789976	-1.2361966e-08	-2.3137403e-10	0.9789976	-1.2361966e-08	-2.3137403e-10	NaN	NaN	NaN	NaN	NaN	NaN	-0.019999983	0	0	NaN	NaN	NaN	NaN	NaN	NaN	0	1e-07
0	-0.9692513	-0.0073083974	-9.472439e-05	-0.96925133	-0.0073083974	-9.47244e-05	NaN	NaN	NaN	NaN	NaN	NaN	-0.039999966	0	0	NaN	NaN	NaN	NaN	NaN	NaN	0	1e-07
0	-0.9863689	-0.014981623	-3.5536723e-07	-0.98636883	-0.014981621	-3.5536723e-07	NaN	NaN	NaN	NaN	NaN	NaN	-0.060000177	0	0	NaN	NaN	NaN	NaN	NaN	NaN	0	1e-07
0	-0.98968726	-7.8387075e-06	-7.9958795e-09	-0.9896872	-7.8387075e-06	-7.9958795e-09	NaN	NaN	NaN	NaN	NaN	NaN	-0.07999993	0	0	NaN	NaN	NaN	NaN	NaN	NaN	0	1e-07
0	-0.9905902	-3.6512902e-06	-6.0185954e-09	-0.9905902	-3.6512902e-06	-6.0185954e-09	NaN	NaN	NaN	NaN	NaN	NaN	-0.10000025	0	0	NaN	NaN	NaN	NaN	NaN	NaN	0	1e-07
0	-0.99138784	-2.933827e-06	-6.3335257e-09	-0.99138784	-2.933827e-06	-6.3335257e-09	NaN	NaN	NaN	NaN	NaN	NaN	-0.120000355	0	0	NaN	NaN	NaN	NaN	NaN	NaN	0	1e-07
0	-0.9920981	-2.0938967e-06	-5.4127085e-09	-0.9920982	-2.0938967e-06	-5.4127085e-09	NaN	NaN	NaN	NaN	NaN	NaN	-0.13999973	0	0	NaN	NaN	NaN	NaN	NaN	NaN	0	1e-07
0	-0.9927352	-1.3289899e-06	-4.067349e-09	-0.99273527	-1.32899e-06	-4.067349e-09	NaN	NaN	NaN	NaN	NaN	NaN	-0.15999986	0	0	NaN	NaN	NaN	NaN	NaN	NaN	0	1e-07
0	-0.99331	-7.66594e-07	-2.3111149e-09	-0.9933099	-7.66594e-07	-2.3111149e-09	NaN	NaN	NaN	NaN	NaN	NaN	-0.18000022	0	0	NaN	NaN	NaN	NaN	NaN	NaN	0	1e-07
0	-0.9938311	-3.592819e-07	-1.0338645e-09	-0.9938311	-3.592819e-07	-1.0338645e-09	NaN	NaN	NaN	NaN	NaN	NaN	-0.2000005	0	0	NaN	NaN	NaN	NaN	NaN	NaN	0	1e-07
0	-0.99430597	-1.3895004e-07	-4.4069282e-10	-0.99430585	-1.3895004e-07	-4.4069282e-10	NaN	NaN	NaN	NaN	NaN	NaN	-0.22000037	0	0	NaN	NaN	NaN	NaN	NaN	NaN	0	1e-07
0	-0.99474025	-4.5015724e-08	-2.6311575e-10	-0.9947402	-4.5015724e-08	-2.6311575e-10	NaN	NaN	NaN	NaN	NaN	NaN	-0.24000071	0	0	NaN	NaN	NaN	NaN	NaN	NaN	0	1e-07
0	-0.9951387	-9.5561745e-09	-2.4300562e-12	-0.9951387	-9.5561745e-09	-2.4300562e-12	NaN	NaN	NaN	NaN	NaN	NaN	-0.25999936	0	0	NaN	NaN	NaN	NaN	NaN	NaN	0	1e-07
0	-0.9955056	1.1738166e-10	1.12076126e-10	-0.9955056	1.1738166e-10	1.12076126e-10	NaN	NaN	NaN	NaN	NaN	NaN	-0.27999946	0	0	NaN	NaN	NaN	NaN	NaN	NaN	0	1e-07
0	-0.99584424	-4.075673e-10	8.586265e-11	-0.99584436	-4.075673e-10	8.586265e-11	NaN	NaN	NaN	NaN	NaN	NaN	-0.30000007	0	0	NaN	NaN	NaN	NaN	NaN	NaN	0	1e-07
0	-0.9961475	3.161631e-10	1.09869e-10	-0.9961475	3.161631e-10	1.0986901e-10	NaN	NaN	NaN	NaN	NaN	NaN	-0.31999972	0	0	NaN	NaN	NaN	NaN	NaN	NaN	0	1e-07
0	-0.99641955	3.1320724e-10	-1.00003714e-10	-0.9964196	3.1320724e-10	-1.0000373e-10	NaN	NaN	NaN	NaN	NaN	NaN	-0.33999917	0	0	NaN	NaN	NaN	NaN	NaN	NaN	0	1e-07
0	-0.9966705	-6.787104e-11	1.9752566e-10	-0.9966705	-6.787104e-11	1.9752565e-10	NaN	NaN	NaN	NaN	NaN	NaN	-0.36000043	0	0	NaN	NaN	NaN	NaN	NaN	NaN	0	1e-07
0	-0.996902	-1.110152e-10	-1.1939343e-10	-0.99690205	-1.110152e-10	-1.1939341e-10	NaN	NaN	NaN	NaN	NaN	NaN	-0.37999928	0	0	NaN	NaN	NaN	NaN	NaN	NaN	0	1e-07
0	-0.99711573	-8.416805e-10	1.02097206e-10	-0.99711573	-8.416805e-10	1.02097206e-10	NaN	NaN	NaN	NaN	NaN	NaN	-0.400001	0	0	NaN	NaN	NaN	NaN	NaN	NaN	0	1e-07
0	-0.99731326	2.402203e-10	3.5922473e-11	-0.99731314	2.402203e-10	3.5922473e-11	NaN	NaN	NaN	NaN	NaN	NaN	-0.4199987	0	0	NaN	NaN	NaN	NaN	NaN	NaN	0	1e-07
0	-0.9974956	-5.468337e-11	-7.26471e-11	-0.9974956	-5.468337e-11	-7.264709e-11	NaN	NaN	NaN	NaN	NaN	NaN	-0.44000074	0	0	NaN	NaN	NaN	NaN	NaN	NaN	0	1e-07
0	-0.9976641	-1.2727241e-10	2.3508137e-10	-0.9976641	-1.2727241e-10	2.3508137e-10	NaN	NaN	NaN	NaN	NaN	NaN	-0.45999926	0	0	NaN	NaN	NaN	NaN	NaN	NaN	0	1e-07
0	-0.9978196	3.6817482e-10	-8.222953e-11	-0.99781966	3.6817482e-10	-8.222953e-11	NaN	NaN	NaN	NaN	NaN	NaN	-0.48000142	0	0	NaN	NaN	NaN	NaN	NaN	NaN	0	1e-07
0	-0.9979632	-3.291234e-11	1.2758157e-10	-0.9979632	-3.291234e-11	1.2758157e-10	NaN	NaN	NaN	NaN	NaN	NaN	-0.5	0	0	NaN	NaN	NaN	NaN	NaN	NaN	0	1e-07
0	-0.9980954	-4.0142822e-10	1.058172e-10	-0.99809545	-4.0142822e-10	1.0581721e-10	NaN	NaN	NaN	NaN	NaN	NaN	-0.5199987	0	0	NaN	NaN	NaN	NaN	NaN	NaN	0	1e-07
0	-0.9982173	2.4238034e-10	-3.1766714e-11	-0.9982172	2.4238034e-10	-3.1766714e-11	NaN	NaN	NaN	NaN	NaN	NaN	-0.54000026	0	0	NaN	NaN	NaN	NaN	NaN	NaN	0	1e-07
0	-0.99832934	-2.9302782e-10	1.1649667e-10	-0.99832934	-2.9302782e-10	1.1649667e-10	NaN	NaN	NaN	NaN	NaN	NaN	-0.5599989	0	0	NaN	NaN	NaN	NaN	NaN	NaN	0	1e-07
0	-0.99843234	-8.120651e-10	1.1838985e-10	-0.9984324	-8.120651e-10	1.1838984e-10	NaN	NaN	NaN	NaN	NaN	NaN	-0.5800014	0	0	NaN	NaN	NaN	NaN	NaN	NaN	0	1e-07
0	-0.99852693	4.9965365e-11	1.8122599e-10	-0.99852693	4.9965365e-11	1.8122599e-10	NaN	NaN	NaN	NaN	NaN	NaN	-0.60000014	0	0	NaN	NaN	NaN	NaN	NaN	NaN	0	1e-07
0	-0.9984324	-3.0087222e-10	1.7409374e-10	-0.99843234	-3.0087222e-10	1.7409375e-10	NaN	NaN	NaN	NaN	NaN	NaN	-0.5800014	0	0	NaN	NaN	NaN	NaN	NaN	NaN	0	1e-07
0	-0.99832934	5.1090865e-10	1.7593465e-11	-0.99832934	5.1090865e-10	1.7593465e-11	NaN	NaN	NaN	NaN	NaN	NaN	-0.5599989	0	0	NaN	NaN	NaN	NaN	NaN	NaN	0	1e-07
0	-0.99821734	-6.4403594e-11	8.2638583e-11	-0.99821734	-6.4403594e-11	8.2638583e-11	NaN	NaN	NaN	NaN	NaN	NaN	-0.54000026	0	0	NaN	NaN	NaN	NaN	NaN	NaN	0	1e-07
0	-0.99809545	-3.8977532e-10	-1.3567453e-10	-0.9980954	-3.8977532e-10	-1.3567453e-10	NaN	NaN	NaN	NaN	NaN	NaN	-0.5199987	0	0	NaN	NaN	NaN	NaN	NaN	NaN	0	1e-07
0	-0.9979632	-4.1779913e-11	1.0277275e-10	-0.9979632	-4.1779913e-11	1.02772756e-10	NaN	NaN	NaN	NaN	NaN	NaN	-0.5	0	0	NaN	NaN	NaN	NaN	NaN	NaN	0	1e-07
0	-0.99781966	2.5278268e-10	-1.7072722e-11	-0.99781966	2.5278268e-10	-1.7072722e-11	NaN	NaN	NaN	NaN	NaN	NaN	-0.48000142	0	0	NaN	NaN	NaN	NaN	NaN	NaN	0	1e-07
0	-0.9976641	-1.9292656e-10	-3.396449e-11	-0.9976641	-1.9292656e-10	-3.396449e-11	NaN	NaN	NaN	NaN	NaN	NaN	-0.45999926	0	0	NaN	NaN	NaN	NaN	NaN	NaN	0	1e-07
0	-0.99749565	-3.7982772e-10	-3.4956842e-12	-0.9974956	-3.7982772e-10	-3.4956838e-12	NaN	NaN	NaN	NaN	NaN	NaN	-0.44000074	0	0	NaN	NaN	NaN	NaN	NaN	NaN	0	1e-07
0	-0.9973133	-1.2056489e-10	-4.8183423e-11	-0.9973133	-1.2056489e-10	-4.8183423e-11	NaN	NaN	NaN	NaN	NaN	NaN	-0.4199987	0	0	NaN	NaN	NaN	NaN	NaN	NaN	0	1e-07
0	-0.9971158	-5.6536464e-10	6.846434e-11	-0.99711585	-5.6536464e-10	6.846434e-11	NaN	NaN	NaN	NaN	NaN	NaN	-0.400001	0	0	NaN	NaN	NaN	NaN	NaN	NaN	0	1e-07
0	-0.99690205	3.956302e-10	-1.7689894e-10	-0.99690205	3.956302e-10	-1.7689894e-10	NaN	NaN	NaN	NaN	NaN	NaN	-0.37999928	0	0	NaN	NaN	NaN	NaN	NaN	NaN	0	1e-07
0	-0.9966705	-1.3244517e-11	4.3737784e-11	-0.9966705	-1.3244517e-11	4.373778e-11	NaN	NaN	NaN	NaN	NaN	NaN	-0.36000043	0	0	NaN	NaN	NaN	NaN	NaN	NaN	0	1e-07
0	-0.9964197	9.936798e-10	-1.3272387e-10	-0.9964196	9.936798e-10	-1.3272387e-10	NaN	NaN	NaN	NaN	NaN	NaN	-0.33999917	0	0	NaN	NaN	NaN	NaN	NaN	NaN	0	1e-07
0	-0.9961475	5.135803e-10	1.9800114e-10	-0.9961475	5.135803e-10	1.9800114e-10	NaN	NaN	NaN	NaN	NaN	NaN	-0.31999972	0	0	NaN	NaN	NaN	NaN	NaN	NaN	0	1e-07
0	-0.99585193	6.676828e-10	5.992925e-11	-0.9958519	6.676828e-10	5.992925e-11	NaN	NaN	NaN	NaN	NaN	NaN	-0.30000007	0	0	NaN	NaN	NaN	NaN	NaN	NaN	0	1e-07
0	-0.9955303	-1.0345502e-10	1.471192e-10	-0.9955303	-1.0345502e-10	1.4711919e-10	NaN	NaN	NaN	NaN	NaN	NaN	-0.27999946	0	0	NaN	NaN	NaN	NaN	NaN	NaN	0	1e-07
0	-0.9951798	-2.669367e-10	-4.9056013e-11	-0.9951798	-2.669367e-10	-4.9056013e-11	NaN	NaN	NaN	NaN	NaN	NaN	-0.25999936	0	0	NaN	NaN	NaN	NaN	NaN	NaN	0	1e-07
0	-0.99479675	4.2990678e-10	-1.219926e-10	-0.9947968	4.2990678e-10	-1.219926e-10	NaN	NaN	NaN	NaN	NaN	NaN	-0.24000071	0	0	NaN	NaN	NaN	NaN	NaN	NaN	0	1e-07
0	-0.99437714	3.0087222e-10	-1.4224501e-10	-0.99437714	3.0087222e-10	-1.4224501e-10	NaN	NaN	NaN	NaN	NaN	NaN	-0.22000037	0	0	NaN	NaN	NaN	NaN	NaN	NaN	0	1e-07
0	-0.99391603	6.51994e-11	9.0839225e-11	-0.99391603	6.51994e-11	9.083923e-11	NaN	NaN	NaN	NaN	NaN	NaN	-0.2000005	0	0	NaN	NaN	NaN	NaN	NaN	NaN	0	1e-07
0	-0.99340725	-1.166427e-10	1.0962923e-10	-0.9934073	-1.166427e-10	1.0962923e-10	NaN	NaN	NaN	NaN	NaN	NaN	-0.18000022	0	0	NaN	NaN	NaN	NaN	NaN	NaN	0	1e-07
0	-0.9928439	-2.8472869e-10	7.019505e-11	-0.9928439	-2.8472869e-10	7.019505e-11	NaN	NaN	NaN	NaN	NaN	NaN	-0.15999986	0	0	NaN	NaN	NaN	NaN	NaN	NaN	0	1e-07
0	-0.9920982	7.315407e-09	2.543743e-12	-0.9920982	7.315407e-09	2.543743e-12	NaN	NaN	NaN	NaN	NaN	NaN	-0.13999973	0	0	NaN	NaN	NaN	NaN	NaN	NaN	0	1e-07
0	-0.99138784	5.7635816e-09	9.1713304e-11	-0.99138784	5.7635816e-09	9.1713304e-11	NaN	NaN	NaN	NaN	NaN	NaN	-0.120000355	0	0	NaN	NaN	NaN	NaN	NaN	NaN	0	1e-07
0	-0.9905903	5.3711915e-09	-1.1617374e-11	-0.9905903	5.3711915e-09	-1.1617374e-11	NaN	NaN	NaN	NaN	NaN	NaN	-0.10000025	0	0	NaN	NaN	NaN	NaN	NaN	NaN	0	1e-07
0	-0.9896873	5.1685447e-09	-3.2706282e-11	-0.9896873	5.1685447e-09	-3.2706282e-11	NaN	NaN	NaN	NaN	NaN	NaN	-0.07999993	0	0	NaN	NaN	NaN	NaN	NaN	NaN	0	1e-07
0	-0.98865515	3.5732342e-09	-1.8268764e-10	-0.98865515	3.5732342e-09	-1.8268764e-10	NaN	NaN	NaN	NaN	NaN	NaN	-0.060000177	0	0	NaN	NaN	NaN	NaN	NaN	NaN	0	1e-07
0	-0.9874601	1.1981456e-08	5.587708e-11	-0.9874601	1.1981456e-08	5.587708e-11	NaN	NaN	NaN	NaN	NaN	NaN	-0.039999966	0	0	NaN	NaN	NaN	NaN	NaN	NaN	0	1e-07
0	-0.9854907	3.8645794e-08	1.9162627e-10	-0.9854907	3.8645794e-08	1.9162627e-10	NaN	NaN	NaN	NaN	NaN	NaN	-0.019999983	0	0	NaN	NaN	NaN	NaN	NaN	NaN	0	1e-07
0	-0.98274165	7.5996354e-08	9.516583e-10	-0.98274165	7.5996354e-08	9.516583e-10	NaN	NaN	NaN	NaN	NaN	NaN	2.8449465e-16	0	0	NaN	NaN	NaN	NaN	NaN	NaN	0	1e-07
0	-0.9790059	1.5875321e-07	6.6500547e-09	-0.9790059	1.5875321e-07	6.6500547e-09	NaN	NaN	NaN	NaN	NaN	NaN	0.019999983	0	0	NaN	NaN	NaN	NaN	NaN	NaN	0	1e-07
0	0.9681547	-3.1810487e-08	-1.1218617e-09	0.9681547	-3.1810487e-08	-1.1218617e-09	NaN	NaN	NaN	NaN	NaN	NaN	0.039999966	0	0	NaN	NaN	NaN	NaN	NaN	NaN	0	1e-07
0	0.98636824	-3.274181e-10	1.4233592e-10	0.98636824	-3.274181e-10	1.4233592e-10	NaN	NaN	NaN	NaN	NaN	NaN	0.060000177	0	0	NaN	NaN	NaN	NaN	NaN	NaN	0	1e-07
0	0.9896873	1.0004442e-11	1.0201617e-10	0.9896873	1.0004442e-11	1.0201617e-10	NaN	NaN	NaN	NaN	NaN	NaN	0.07999993	0	0	NaN	NaN	NaN	NaN	NaN	NaN	0	1e-07
0	0.9905902	3.1320724e-11	-1.2241941e-10	0.99059016	3.1320724e-11	-1.2241941e-10	NaN	NaN	NaN	NaN	NaN	NaN	0.10000025	0	0	NaN	NaN	NaN	NaN	NaN	NaN	0	1e-07
0	0.99138784	-5.288143e-10	-6.655654e-11	0.99138784	-5.288143e-10	-6.655654e-11	NaN	NaN	NaN	NaN	NaN	NaN	0.120000355	0	0	NaN	NaN	NaN	NaN	NaN	NaN	0	1e-07
0	0.9920981	-2.771685e-10	-4.420997e-11	0.99209815	-2.771685e-10	-4.420997e-11	NaN	NaN	NaN	NaN	NaN	NaN	0.13999973	0	0	NaN	NaN	NaN	NaN	NaN	NaN	0	1e-07
0	0.9927352	-4.121148e-11	-1.5971224e-10	0.9927352	-4.121148e-11	-1.5971224e-10	NaN	NaN	NaN	NaN	NaN	NaN	0.15999986	0	0	NaN	NaN	NaN	NaN	NaN	NaN	0	1e-07
0	0.99331	-2.1265123e-10	-3.6557424e-12	0.99331003	-2.1265123e-10	-3.6557424e-12	NaN	NaN	NaN	NaN	NaN	NaN	0.18000022	0	0	NaN	NaN	NaN	NaN	NaN	NaN	0	1e-07
0	0.99383116	-4.267804e-10	-1.5617907e-10	0.9938311	-4.267804e-10	-1.5617907e-10	NaN	NaN	NaN	NaN	NaN	NaN	0.2000005	0	0	NaN	NaN	NaN	NaN	NaN	NaN	0	1e-07
0	0.99430597	2.5204372e-10	1.1485568e-10	0.9943059	2.5204372e-10	1.1485568e-10	NaN	NaN	NaN	NaN	NaN	NaN	0.22000037	0	0	NaN	NaN	NaN	NaN	NaN	NaN	0	1e-07
0	0.99474025	6.8820327e-10	-2.1696422e-11	0.9947401	6.8820327e-10	-2.1696422e-11	NaN	NaN	NaN	NaN	NaN	NaN	0.24000071	0	0	NaN	NaN	NaN	NaN	NaN	NaN	0	1e-07
0	0.9951387	1.4961756e-09	-2.653966e-11	0.9951387	1.4961756e-09	-2.653966e-11	NaN	NaN	NaN	NaN	NaN	NaN	0.25999936	0	0	NaN	NaN	NaN	NaN	NaN	NaN	0	1e-07
0	0.99550563	-4.0625991e-10	-1.8021273e-10	0.9955056	-4.0625991e-10	-1.8021273e-10	NaN	NaN	NaN	NaN	NaN	NaN	0.27999946	0	0	NaN	NaN	NaN	NaN	NaN	NaN	0	1e-07
0	0.9958443	4.025651e-10	-2.4704905e-11	0.9958443	4.025651e-10	-2.4704905e-11	NaN	NaN	NaN	NaN	NaN	NaN	0.30000007	0	0	NaN	NaN	NaN	NaN	NaN	NaN	0	1e-07
0	0.9961475	-3.73916e-10	-4.875357e-11	0.9961475	-3.73916e-10	-4.875357e-11	NaN	NaN	NaN	NaN	NaN	NaN	0.31999972	0	0	NaN	NaN	NaN	NaN	NaN	NaN	0	1e-07
0	0.9964196	-1.2962005e-09	1.1555929e-10	0.99641967	-1.2962005e-09	1.1555929e-10	NaN	NaN	NaN	NaN	NaN	NaN	0.33999917	0	0	NaN	NaN	NaN	NaN	NaN	NaN	0	1e-07
0	0.9966705	8.401457e-11	-1.363118e-10	0.9966705	8.401457e-11	-1.3631181e-10	NaN	NaN	NaN	NaN	NaN	NaN	0.36000043	0	0	NaN	NaN	NaN	NaN	NaN	NaN	0	1e-07
0	0.99690205	3.813625e-10	1.7009995e-10	0.996902	3.813625e-10	1.7009995e-10	NaN	NaN	NaN	NaN	NaN	NaN	0.37999928	0	0	NaN	NaN	NaN	NaN	NaN	NaN	0	1e-07
0	0.99711573	8.148504e-10	-9.068915e-11	0.99711573	8.148504e-10	-9.068915e-11	NaN	NaN	NaN	NaN	NaN	NaN	0.400001	0	0	NaN	NaN	NaN	NaN	NaN	NaN	0	1e-07
0	0.99731326	-2.5164582e-10	-1.4002335e-10	0.99731326	-2.5164582e-10	-1.4002334e-10	NaN	NaN	NaN	NaN	NaN	NaN	0.4199987	0	0	NaN	NaN	NaN	NaN	NaN	NaN	0	1e-07
0	0.9974956	7.0087935e-11	-4.0680386e-11	0.99749553	7.0087935e-11	-4.0680386e-11	NaN	NaN	NaN	NaN	NaN	NaN	0.44000074	0	0	NaN	NaN	NaN	NaN	NaN	NaN	0	1e-07
0	0.9976641	1.8798119e-10	-1.6945811e-10	0.9976641	1.8798119e-10	-1.6945811e-10	NaN	NaN	NaN	NaN	NaN	NaN	0.45999926	0	0	NaN	NaN	NaN	NaN	NaN	NaN	0	1e-07
0	0.9978196	-5.0266635e-10	5.2684485e-11	0.99781966	-5.0266635e-10	5.2684485e-11	NaN	NaN	NaN	NaN	NaN	NaN	0.48000142	0	0	NaN	NaN	NaN	NaN	NaN	NaN	0	1e-07
0	0.9979632	3.092282e-10	-9.7721546e-11	0.99796313	3.092282e-10	-9.772154e-11	NaN	NaN	NaN	NaN	NaN	NaN	0.5	0	0	NaN	NaN	NaN	NaN	NaN	NaN	0	1e-07
0	0.99809545	3.1377567e-10	-4.469332e-11	0.99809545	3.1377567e-10	-4.469332e-11	NaN	NaN	NaN	NaN	NaN	NaN	0.5199987	0	0	NaN	NaN	NaN	NaN	NaN	NaN	0	1e-07
0	0.9982173	-4.0796522e-10	1.289512e-10	0.99821734	-4.0796522e-10	1.289512e-10	NaN	NaN	NaN	NaN	NaN	NaN	0.54000026	0	0	NaN	NaN	NaN	NaN	NaN	NaN	0	1e-07
0	0.9983293	2.4590463e-10	-1.1208056e-10	0.99832934	2.4590463e-10	-1.1208055e-10	NaN	NaN	NaN	NaN	NaN	NaN	0.5599989	0	0	NaN	NaN	NaN	NaN	NaN	NaN	0	1e-07
0	0.99843234	4.343974e-10	-6.745724e-11	0.9984323	4.343974e-10	-6.745724e-11	NaN	NaN	NaN	NaN	NaN	NaN	0.5800014	0	0	NaN	NaN	NaN	NaN	NaN	NaN	0	1e-07
0	0.99843234	4.343974e-10	-6.7457234e-11	0.99824876	4.544098e-10	-5.1923014e-11	NaN	NaN	NaN	NaN	NaN	NaN	0.5800014	0	0	1.4953085	-9.868319e-09	1.3124864e-08	NaN	NaN	NaN	0	1e-07
0	0.99843234	4.343974e-10	-6.7457234e-11	0.99824876	4.544098e-10	-5.192301e-11	NaN	NaN	NaN	NaN	NaN	NaN	0.5800014	0	0	1.2825142	-5.328892e-09	-8.388071e-10	NaN	NaN	NaN	4.2857144e-09	1e-07
0	0.99843234	4.343974e-10	-6.745724e-11	0.9982356	7.6022575e-09	-8.007738e-10	NaN	NaN	NaN	NaN	NaN	NaN	0.5800014	0	0	1.2817155	0.0004075799	-7.4278836e-07	NaN	NaN	NaN	4.2857144e-09	5e-08
0	0.9984323	4.343974e-10	-6.745724e-11	0.99823433	7.9399145e-09	-7.94494e-10	NaN	NaN	NaN	NaN	NaN	NaN	0.5800014	0	0	1.2816259	0.00042953555	-4.7767594e-07	0.74016577	0.0008820855	-0.0040198774	4.2857144e-09	5.233533e-08
