# t (s)	mx ()	my ()	mz ()	m.region32x ()	m.region32y ()	m.region32z ()	m.region33x ()	m.region33y ()	m.region33z ()	m.region34x ()	m.region34y ()	m.region34z ()	B_extx (T)	B_exty (T)	B_extz (T)	B_eff.region6x (T)	B_eff.region6y (T)	B_eff.region6z (T)	B_eff.region9x (T)	B_eff.region9y (T)	B_eff.region9z (T)	step_x (No unit)	step_y (No unit)
0	-2.2572931e-07	6.6951034e-06	0.0011148484	-2.2584572e-07	6.6951034e-06	0.0011148484	NaN	NaN	NaN	NaN	NaN	NaN	0	0	0	NaN	NaN	NaN	NaN	NaN	NaN	0	1e-07
0	0.9844458	1.0608346e-08	-1.2673972e-11	0.9844458	1.0608346e-08	-1.2673971e-11	NaN	NaN	NaN	NaN	NaN	NaN	0.039999973	0	0	NaN	NaN	NaN	NaN	NaN	NaN	0	1e-07
0	0.9901752	3.843752e-10	3.896955e-11	0.99017525	3.843752e-10	3.896955e-11	NaN	NaN	NaN	NaN	NaN	NaN	0.079999946	0	0	NaN	NaN	NaN	NaN	NaN	NaN	0	1e-07
0	0.9922244	6.28404e-10	-1.2099338e-10	0.99222434	6.28404e-10	-1.2099338e-10	NaN	NaN	NaN	NaN	NaN	NaN	0.11999989	0	0	NaN	NaN	NaN	NaN	NaN	NaN	0	1e-07
0	0.99377006	4.735057e-10	1.3581677e-11	0.99377006	4.735057e-10	1.3581677e-11	NaN	NaN	NaN	NaN	NaN	NaN	0.15999989	0	0	NaN	NaN	NaN	NaN	NaN	NaN	0	1e-07
0	0.9949762	2.9859848e-10	2.196611e-11	0.9949763	2.9859848e-10	2.1966113e-11	NaN	NaN	NaN	NaN	NaN	NaN	0.20000018	0	0	NaN	NaN	NaN	NaN	NaN	NaN	0	1e-07
0	0.9959403	-4.0643044e-10	4.183184e-11	0.9959403	-4.0643044e-10	4.1831844e-11	NaN	NaN	NaN	NaN	NaN	NaN	0.23999979	0	0	NaN	NaN	NaN	NaN	NaN	NaN	0	1e-07
0	0.99672335	1.7786306e-10	-6.107899e-11	0.99672335	1.7786306e-10	-6.107898e-11	NaN	NaN	NaN	NaN	NaN	NaN	0.28000018	0	0	NaN	NaN	NaN	NaN	NaN	NaN	0	1e-07
0	0.9973651	-1.8758328e-11	-9.133601e-11	0.9973652	-1.8758328e-11	-9.1336015e-11	NaN	NaN	NaN	NaN	NaN	NaN	0.31999978	0	0	NaN	NaN	NaN	NaN	NaN	NaN	0	1e-07
0	0.99789166	3.9847237e-11	-7.630533e-11	0.99789166	3.9847237e-11	-7.630533e-11	NaN	NaN	NaN	NaN	NaN	NaN	0.36000034	0	0	NaN	NaN	NaN	NaN	NaN	NaN	0	1e-07
0	0.9983202	-2.3885605e-10	9.163441e-11	0.9983202	-2.3885605e-10	9.1634415e-11	NaN	NaN	NaN	NaN	NaN	NaN	0.40000036	0	0	NaN	NaN	NaN	NaN	NaN	NaN	0	1e-07
0	0.9986627	-7.730705e-11	-1.7237586e-10	0.9986627	-7.730705e-11	-1.7237585e-10	NaN	NaN	NaN	NaN	NaN	NaN	0.43999952	0	0	NaN	NaN	NaN	NaN	NaN	NaN	0	1e-07
0	0.9989296	3.6646952e-10	-1.06532075e-10	0.99892956	3.6646952e-10	-1.0653207e-10	NaN	NaN	NaN	NaN	NaN	NaN	0.47999957	0	0	NaN	NaN	NaN	NaN	NaN	NaN	0	1e-07
0	0.9991321	1.0072654e-10	3.180726e-11	0.99913216	1.0072654e-10	3.1807258e-11	NaN	NaN	NaN	NaN	NaN	NaN	0.5200003	0	0	NaN	NaN	NaN	NaN	NaN	NaN	0	1e-07
0	0.99928343	-6.696155e-11	-1.3320593e-10	0.99928355	-6.696155e-11	-1.3320595e-10	NaN	NaN	NaN	NaN	NaN	NaN	0.56000036	0	0	NaN	NaN	NaN	NaN	NaN	NaN	0	1e-07
0	0.9993964	-2.1694291e-10	6.045028e-11	0.9993964	-2.1694291e-10	6.0450284e-11	NaN	NaN	NaN	NaN	NaN	NaN	0.59999925	0	0	NaN	NaN	NaN	NaN	NaN	NaN	0	1e-07
0	0.99948144	3.016396e-10	-1.9867107e-10	0.99948144	3.016396e-10	-1.9867107e-10	NaN	NaN	NaN	NaN	NaN	NaN	0.63999957	0	0	NaN	NaN	NaN	NaN	NaN	NaN	0	1e-07
0	0.99954677	2.293632e-11	1.2440279e-11	0.99954677	2.293632e-11	1.2440278e-11	NaN	NaN	NaN	NaN	NaN	NaN	0.68000025	0	0	NaN	NaN	NaN	NaN	NaN	NaN	0	1e-07
0	0.9995739	3.079208e-10	-3.46954e-11	0.9995739	3.079208e-10	-3.46954e-11	NaN	NaN	NaN	NaN	NaN	NaN	0.69999945	0	0	NaN	NaN	NaN	NaN	NaN	NaN	0	1e-07
0	0.99951625	1.213607e-11	-6.988726e-11	0.99951625	1.213607e-11	-6.988726e-11	NaN	NaN	NaN	NaN	NaN	NaN	0.6600008	0	0	NaN	NaN	NaN	NaN	NaN	NaN	0	1e-07
0	0.99944186	-6.849632e-12	9.404937e-11	0.9994418	-6.849632e-12	9.404937e-11	NaN	NaN	NaN	NaN	NaN	NaN	0.6200003	0	0	NaN	NaN	NaN	NaN	NaN	NaN	0	1e-07
0	0.99939644	7.034373e-11	2.7158246e-11	0.9993964	7.034373e-11	2.7158246e-11	NaN	NaN	NaN	NaN	NaN	NaN	0.59999925	0	0	NaN	NaN	NaN	NaN	NaN	NaN	0	1e-07
0	0.99934405	1.4284751e-10	-3.9029934e-13	0.99934405	1.4284751e-10	-3.9029934e-13	NaN	NaN	NaN	NaN	NaN	NaN	0.58000094	0	0	NaN	NaN	NaN	NaN	NaN	NaN	0	1e-07
0	0.9992835	2.581828e-10	-1.175181e-10	0.99928355	2.581828e-10	-1.175181e-10	NaN	NaN	NaN	NaN	NaN	NaN	0.56000036	0	0	NaN	NaN	NaN	NaN	NaN	NaN	0	1e-07
0	0.99921346	2.5693225e-11	2.2068188e-11	0.9992134	2.5693225e-11	2.2068188e-11	NaN	NaN	NaN	NaN	NaN	NaN	0.5400007	0	0	NaN	NaN	NaN	NaN	NaN	NaN	0	1e-07
0	0.99913216	2.564775e-10	1.0567754e-11	0.99913216	2.564775e-10	1.0567753e-11	NaN	NaN	NaN	NaN	NaN	NaN	0.5200003	0	0	NaN	NaN	NaN	NaN	NaN	NaN	0	1e-07
0	0.9990381	1.7905677e-11	-2.933375e-11	0.9990381	1.7905677e-11	-2.933375e-11	NaN	NaN	NaN	NaN	NaN	NaN	0.5	0	0	NaN	NaN	NaN	NaN	NaN	NaN	0	1e-07
0	0.9989296	2.1742608e-10	3.849514e-11	0.9989296	2.1742608e-10	3.8495145e-11	NaN	NaN	NaN	NaN	NaN	NaN	0.47999957	0	0	NaN	NaN	NaN	NaN	NaN	NaN	0	1e-07
0	0.9988049	1.6444801e-10	-9.812767e-11	0.998805	1.6444801e-10	-9.8127666e-11	NaN	NaN	NaN	NaN	NaN	NaN	0.45999935	0	0	NaN	NaN	NaN	NaN	NaN	NaN	0	1e-07
0	0.99866277	-7.582912e-11	-8.354506e-11	0.99866277	-7.582912e-11	-8.354506e-11	NaN	NaN	NaN	NaN	NaN	NaN	0.43999952	0	0	NaN	NaN	NaN	NaN	NaN	NaN	0	1e-07
0	0.99850154	-1.912781e-10	-7.5974595e-11	0.99850166	-1.912781e-10	-7.59746e-11	NaN	NaN	NaN	NaN	NaN	NaN	0.41999933	0	0	NaN	NaN	NaN	NaN	NaN	NaN	0	1e-07
0	0.9983202	2.2851054e-10	1.1883487e-10	0.99832016	2.2851054e-10	1.1883487e-10	NaN	NaN	NaN	NaN	NaN	NaN	0.40000036	0	0	NaN	NaN	NaN	NaN	NaN	NaN	0	1e-07
0	0.99811745	8.361667e-11	-3.176006e-11	0.9981174	8.361667e-11	-3.1760056e-11	NaN	NaN	NaN	NaN	NaN	NaN	0.3800001	0	0	NaN	NaN	NaN	NaN	NaN	NaN	0	1e-07
0	0.9978917	-2.876277e-11	-4.6390974e-11	0.9978917	-2.876277e-11	-4.639097e-11	NaN	NaN	NaN	NaN	NaN	NaN	0.36000034	0	0	NaN	NaN	NaN	NaN	NaN	NaN	0	1e-07
0	0.9976416	-3.2747494e-10	3.4168314e-11	0.9976416	-3.2747494e-10	3.4168317e-11	NaN	NaN	NaN	NaN	NaN	NaN	0.34000012	0	0	NaN	NaN	NaN	NaN	NaN	NaN	0	1e-07
0	0.9973652	-1.5313617e-10	-7.448635e-12	0.9973652	-1.5313617e-10	-7.448635e-12	NaN	NaN	NaN	NaN	NaN	NaN	0.31999978	0	0	NaN	NaN	NaN	NaN	NaN	NaN	0	1e-07
0	0.99706006	2.535785e-10	-1.2681892e-10	0.9970601	2.535785e-10	-1.268189e-10	NaN	NaN	NaN	NaN	NaN	NaN	0.29999962	0	0	NaN	NaN	NaN	NaN	NaN	NaN	0	1e-07
0	0.9967235	3.4958703e-11	-6.84027e-11	0.9967235	3.4958703e-11	-6.84027e-11	NaN	NaN	NaN	NaN	NaN	NaN	0.28000018	0	0	NaN	NaN	NaN	NaN	NaN	NaN	0	1e-07
0	0.9963516	-6.190248e-11	-3.647575e-11	0.9963517	-6.190248e-11	-3.647575e-11	NaN	NaN	NaN	NaN	NaN	NaN	0.26000014	0	0	NaN	NaN	NaN	NaN	NaN	NaN	0	1e-07
0	0.9959403	4.9453774e-12	-3.9875266e-11	0.9959403	4.9453774e-12	-3.9875263e-11	NaN	NaN	NaN	NaN	NaN	NaN	0.23999979	0	0	NaN	NaN	NaN	NaN	NaN	NaN	0	1e-07
0	0.9954842	-1.6126478e-10	1.0952717e-10	0.9954842	-1.6126478e-10	1.0952717e-10	NaN	NaN	NaN	NaN	NaN	NaN	0.21999976	0	0	NaN	NaN	NaN	NaN	NaN	NaN	0	1e-07
0	0.99497634	1.05842446e-10	1.4557279e-12	0.99497634	1.05842446e-10	1.4557279e-12	NaN	NaN	NaN	NaN	NaN	NaN	0.20000018	0	0	NaN	NaN	NaN	NaN	NaN	NaN	0	1e-07
0	0.9944085	1.6484591e-10	-3.541449e-11	0.9944085	1.6484591e-10	-3.541449e-11	NaN	NaN	NaN	NaN	NaN	NaN	0.18000017	0	0	NaN	NaN	NaN	NaN	NaN	NaN	0	1e-07
0	0.9937702	4.7975846e-10	-3.0995692e-13	0.9937702	4.7975846e-10	-3.0995692e-13	NaN	NaN	NaN	NaN	NaN	NaN	0.15999989	0	0	NaN	NaN	NaN	NaN	NaN	NaN	0	1e-07
0	0.9930479	1.72804e-10	-7.846921e-11	0.9930479	1.72804e-10	-7.846922e-11	NaN	NaN	NaN	NaN	NaN	NaN	0.14000009	0	0	NaN	NaN	NaN	NaN	NaN	NaN	0	1e-07
0	0.99222445	7.261747e-10	-2.8605378e-11	0.99222445	7.261747e-10	-2.8605378e-11	NaN	NaN	NaN	NaN	NaN	NaN	0.11999989	0	0	NaN	NaN	NaN	NaN	NaN	NaN	0	1e-07
0	0.9912771	-3.3651304e-11	-9.229762e-11	0.99127716	-3.3651304e-11	-9.229763e-11	NaN	NaN	NaN	NaN	NaN	NaN	0.10000009	0	0	NaN	NaN	NaN	NaN	NaN	NaN	0	1e-07
0	0.99017537	1.9548452e-10	4.6051475e-11	0.99017537	1.9548452e-10	4.605148e-11	NaN	NaN	NaN	NaN	NaN	NaN	0.079999946	0	0	NaN	NaN	NaN	NaN	NaN	NaN	0	1e-07
0	0.9888771	1.1295356e-09	5.892176e-11	0.9888771	1.1295356e-09	5.892176e-11	NaN	NaN	NaN	NaN	NaN	NaN	0.059999947	0	0	NaN	NaN	NaN	NaN	NaN	NaN	0	1e-07
0	0.9873222	4.0449777e-10	5.0069997e-11	0.9873222	4.0449777e-10	5.0069997e-11	NaN	NaN	NaN	NaN	NaN	NaN	0.039999973	0	0	NaN	NaN	NaN	NaN	NaN	NaN	0	1e-07
0	0.9854214	1.6277113e-09	2.4271153e-11	0.9854214	1.6277113e-09	2.4271155e-11	NaN	NaN	NaN	NaN	NaN	NaN	0.019999987	0	0	NaN	NaN	NaN	NaN	NaN	NaN	0	1e-07
0	0.9830334	6.468781e-10	4.2556375e-11	0.9830335	6.468781e-10	4.2556375e-11	NaN	NaN	NaN	NaN	NaN	NaN	-2.8449465e-16	0	0	NaN	NaN	NaN	NaN	NaN	NaN	0	1e-07
0	0.9799175	2.2417908e-09	-8.6069155e-12	0.9799175	2.2417908e-09	-8.6069155e-12	NaN	NaN	NaN	NaN	NaN	NaN	-0.019999987	0	0	NaN	NaN	NaN	NaN	NaN	NaN	0	1e-07
0	0.9756114	4.9344635e-09	4.0009118e-11	0.97561145	4.9344635e-09	4.0009114e-11	NaN	NaN	NaN	NaN	NaN	NaN	-0.039999973	0	0	NaN	NaN	NaN	NaN	NaN	NaN	0	1e-07
0	0.96903074	1.3505257e-08	2.7584001e-11	0.96903074	1.3505257e-08	2.7583998e-11	NaN	NaN	NaN	NaN	NaN	NaN	-0.059999947	0	0	NaN	NaN	NaN	NaN	NaN	NaN	0	1e-07
0	0.9562617	2.7872608e-07	-8.5633896e-11	0.9562617	2.7872608e-07	-8.563389e-11	NaN	NaN	NaN	NaN	NaN	NaN	-0.079999946	0	0	NaN	NaN	NaN	NaN	NaN	NaN	0	1e-07
0	-0.99127704	-5.869956e-07	-4.156192e-11	-0.991277	-5.869956e-07	-4.1561917e-11	NaN	NaN	NaN	NaN	NaN	NaN	-0.10000009	0	0	NaN	NaN	NaN	NaN	NaN	NaN	0	1e-07
0	-0.9922243	-4.1659598e-07	3.1246852e-11	-0.99222434	-4.1659598e-07	3.1246856e-11	NaN	NaN	NaN	NaN	NaN	NaN	-0.11999989	0	0	NaN	NaN	NaN	NaN	NaN	NaN	0	1e-07
0	-0.9930478	-2.9504105e-07	1.3677459e-10	-0.9930478	-2.9504105e-07	1.367746e-10	NaN	NaN	NaN	NaN	NaN	NaN	-0.14000009	0	0	NaN	NaN	NaN	NaN	NaN	NaN	0	1e-07
0	-0.99377	-2.0995054e-07	6.311944e-11	-0.99377	-2.0995054e-07	6.311944e-11	NaN	NaN	NaN	NaN	NaN	NaN	-0.15999989	0	0	NaN	NaN	NaN	NaN	NaN	NaN	0	1e-07
0	-0.99440837	-1.4306755e-07	3.497401e-11	-0.99440837	-1.4306755e-07	3.497401e-11	NaN	NaN	NaN	NaN	NaN	NaN	-0.18000017	0	0	NaN	NaN	NaN	NaN	NaN	NaN	0	1e-07
0	-0.9949762	-9.141246e-08	6.4826087e-12	-0.9949762	-9.141246e-08	6.4826087e-12	NaN	NaN	NaN	NaN	NaN	NaN	-0.20000018	0	0	NaN	NaN	NaN	NaN	NaN	NaN	0	1e-07
0	-0.9954841	-5.809659e-08	-1.7531332e-10	-0.995484	-5.809659e-08	-1.7531332e-10	NaN	NaN	NaN	NaN	NaN	NaN	-0.21999976	0	0	NaN	NaN	NaN	NaN	NaN	NaN	0	1e-07
0	-0.9959403	-3.8878454e-08	8.4700816e-11	-0.9959403	-3.8878454e-08	8.470082e-11	NaN	NaN	NaN	NaN	NaN	NaN	-0.23999979	0	0	NaN	NaN	NaN	NaN	NaN	NaN	0	1e-07
0	-0.9963515	-2.4072335e-08	1.6742904e-10	-0.9963515	-2.4072335e-08	1.6742904e-10	NaN	NaN	NaN	NaN	NaN	NaN	-0.26000014	0	0	NaN	NaN	NaN	NaN	NaN	NaN	0	1e-07
0	-0.9967233	-1.4215345e-08	-7.428767e-12	-0.9967233	-1.4215345e-08	-7.4287685e-12	NaN	NaN	NaN	NaN	NaN	NaN	-0.28000018	0	0	NaN	NaN	NaN	NaN	NaN	NaN	0	1e-07
0	-0.99705994	-6.8581585e-09	2.823056e-11	-0.99705994	-6.8581585e-09	2.8230564e-11	NaN	NaN	NaN	NaN	NaN	NaN	-0.29999962	0	0	NaN	NaN	NaN	NaN	NaN	NaN	0	1e-07
0	-0.9973651	-3.4212349e-09	8.332348e-11	-0.9973651	-3.4212349e-09	8.332348e-11	NaN	NaN	NaN	NaN	NaN	NaN	-0.31999978	0	0	NaN	NaN	NaN	NaN	NaN	NaN	0	1e-07
0	-0.99764144	-1.2418582e-09	4.187338e-12	-0.99764144	-1.2418582e-09	4.187338e-12	NaN	NaN	NaN	NaN	NaN	NaN	-0.34000012	0	0	NaN	NaN	NaN	NaN	NaN	NaN	0	1e-07
0	-0.99789166	-5.7622174e-10	1.567962e-10	-0.99789166	-5.7622174e-10	1.5679621e-10	NaN	NaN	NaN	NaN	NaN	NaN	-0.36000034	0	0	NaN	NaN	NaN	NaN	NaN	NaN	0	1e-07
0	-0.9981173	-3.05306e-10	-3.763182e-11	-0.9981173	-3.05306e-10	-3.7631825e-11	NaN	NaN	NaN	NaN	NaN	NaN	-0.3800001	0	0	NaN	NaN	NaN	NaN	NaN	NaN	0	1e-07
0	-0.9983203	1.8508217e-10	-3.1145503e-11	-0.99832016	1.8508217e-10	-3.1145506e-11	NaN	NaN	NaN	NaN	NaN	NaN	-0.40000036	0	0	NaN	NaN	NaN	NaN	NaN	NaN	0	1e-07
0	-0.99850154	-1.9656454e-10	1.5431025e-11	-0.99850154	-1.9656454e-10	1.5431025e-11	NaN	NaN	NaN	NaN	NaN	NaN	-0.41999933	0	0	NaN	NaN	NaN	NaN	NaN	NaN	0	1e-07
0	-0.9986627	2.3914026e-10	1.573612e-10	-0.9986627	2.3914026e-10	1.573612e-10	NaN	NaN	NaN	NaN	NaN	NaN	-0.43999952	0	0	NaN	NaN	NaN	NaN	NaN	NaN	0	1e-07
0	-0.998805	-1.2664714e-10	1.4222542e-11	-0.9988049	-1.2664714e-10	1.4222543e-11	NaN	NaN	NaN	NaN	NaN	NaN	-0.45999935	0	0	NaN	NaN	NaN	NaN	NaN	NaN	0	1e-07
0	-0.99892956	-2.2617996e-10	-3.1737182e-12	-0.99892956	-2.2617996e-10	-3.1737182e-12	NaN	NaN	NaN	NaN	NaN	NaN	-0.47999957	0	0	NaN	NaN	NaN	NaN	NaN	NaN	0	1e-07
0	-0.9990381	2.6716407e-11	2.23567e-11	-0.9990381	2.6716407e-11	2.23567e-11	NaN	NaN	NaN	NaN	NaN	NaN	-0.5	0	0	NaN	NaN	NaN	NaN	NaN	NaN	0	1e-07
0	-0.9991321	-3.3389824e-10	-1.17025695e-11	-0.99913216	-3.3389824e-10	-1.17025695e-11	NaN	NaN	NaN	NaN	NaN	NaN	-0.5200003	0	0	NaN	NaN	NaN	NaN	NaN	NaN	0	1e-07
0	-0.99921346	-1.5734258e-10	6.3418194e-13	-0.9992134	-1.5734258e-10	6.3418194e-13	NaN	NaN	NaN	NaN	NaN	NaN	-0.5400007	0	0	NaN	NaN	NaN	NaN	NaN	NaN	0	1e-07
0	-0.99928355	-1.15448984e-10	7.2090535e-11	-0.99928355	-1.15448984e-10	7.209052e-11	NaN	NaN	NaN	NaN	NaN	NaN	-0.56000036	0	0	NaN	NaN	NaN	NaN	NaN	NaN	0	1e-07
0	-0.99934393	-1.1831958e-10	1.2590098e-12	-0.99934393	-1.1831958e-10	1.2590098e-12	NaN	NaN	NaN	NaN	NaN	NaN	-0.58000094	0	0	NaN	NaN	NaN	NaN	NaN	NaN	0	1e-07
0	-0.9993963	1.4168222e-10	-5.241206e-11	-0.9993963	1.4168222e-10	-5.241206e-11	NaN	NaN	NaN	NaN	NaN	NaN	-0.59999925	0	0	NaN	NaN	NaN	NaN	NaN	NaN	0	1e-07
0	-0.999344	-7.435119e-11	4.6092943e-12	-0.99934405	-7.435119e-11	4.6092943e-12	NaN	NaN	NaN	NaN	NaN	NaN	-0.58000094	0	0	NaN	NaN	NaN	NaN	NaN	NaN	0	1e-07
0	-0.99928355	-1.7240609e-10	1.2253927e-10	-0.9992835	-1.7240609e-10	1.2253926e-10	NaN	NaN	NaN	NaN	NaN	NaN	-0.56000036	0	0	NaN	NaN	NaN	NaN	NaN	NaN	0	1e-07
0	-0.99921346	-1.5870683e-10	-5.6745664e-11	-0.99921346	-1.5870683e-10	-5.6745667e-11	NaN	NaN	NaN	NaN	NaN	NaN	-0.5400007	0	0	NaN	NaN	NaN	NaN	NaN	NaN	0	1e-07
0	-0.99913216	-2.349907e-10	5.7202958e-11	-0.99913216	-2.349907e-10	5.720296e-11	NaN	NaN	NaN	NaN	NaN	NaN	-0.5200003	0	0	NaN	NaN	NaN	NaN	NaN	NaN	0	1e-07
0	-0.9990381	-1.2789769e-11	-7.063905e-11	-0.99903804	-1.2789769e-11	-7.0639064e-11	NaN	NaN	NaN	NaN	NaN	NaN	-0.5	0	0	NaN	NaN	NaN	NaN	NaN	NaN	0	1e-07
0	-0.9989296	-3.6976644e-10	3.4951507e-11	-0.9989296	-3.6976644e-10	3.49515e-11	NaN	NaN	NaN	NaN	NaN	NaN	-0.47999957	0	0	NaN	NaN	NaN	NaN	NaN	NaN	0	1e-07
0	-0.998805	-9.873702e-11	1.0640713e-10	-0.998805	-9.873702e-11	1.0640714e-10	NaN	NaN	NaN	NaN	NaN	NaN	-0.45999935	0	0	NaN	NaN	NaN	NaN	NaN	NaN	0	1e-07
0	-0.9986627	1.6541435e-11	1.3961346e-10	-0.9986627	1.6541435e-11	1.3961346e-10	NaN	NaN	NaN	NaN	NaN	NaN	-0.43999952	0	0	NaN	NaN	NaN	NaN	NaN	NaN	0	1e-07
0	-0.9985016	4.7270987e-10	9.319308e-11	-0.9985016	4.7270987e-10	9.3193064e-11	NaN	NaN	NaN	NaN	NaN	NaN	-0.41999933	0	0	NaN	NaN	NaN	NaN	NaN	NaN	0	1e-07
0	-0.9983203	-4.617391e-10	-9.124569e-11	-0.9983203	-4.617391e-10	-9.1245685e-11	NaN	NaN	NaN	NaN	NaN	NaN	-0.40000036	0	0	NaN	NaN	NaN	NaN	NaN	NaN	0	1e-07
0	-0.99811745	6.770051e-11	9.766447e-11	-0.99811745	6.770051e-11	9.766447e-11	NaN	NaN	NaN	NaN	NaN	NaN	-0.3800001	0	0	NaN	NaN	NaN	NaN	NaN	NaN	0	1e-07
0	-0.9978917	4.9681148e-11	4.898562e-11	-0.9978917	4.9681148e-11	4.898562e-11	NaN	NaN	NaN	NaN	NaN	NaN	-0.36000034	0	0	NaN	NaN	NaN	NaN	NaN	NaN	0	1e-07
0	-0.9976417	3.9216275e-10	-4.329436e-11	-0.9976416	3.9216275e-10	-4.329436e-11	NaN	NaN	NaN	NaN	NaN	NaN	-0.34000012	0	0	NaN	NaN	NaN	NaN	NaN	NaN	0	1e-07
0	-0.9973652	-1.5870683e-10	-8.848293e-12	-0.9973652	-1.5870683e-10	-8.848294e-12	NaN	NaN	NaN	NaN	NaN	NaN	-0.31999978	0	0	NaN	NaN	NaN	NaN	NaN	NaN	0	1e-07
0	-0.99706	-4.266667e-10	-3.0595398e-11	-0.99706006	-4.266667e-10	-3.0595398e-11	NaN	NaN	NaN	NaN	NaN	NaN	-0.29999962	0	0	NaN	NaN	NaN	NaN	NaN	NaN	0	1e-07
0	-0.9967234	-4.3496584e-10	1.7074842e-11	-0.9967235	-4.3496584e-10	1.707484e-11	NaN	NaN	NaN	NaN	NaN	NaN	-0.28000018	0	0	NaN	NaN	NaN	NaN	NaN	NaN	0	1e-07
0	-0.9963517	-1.8593482e-10	9.263528e-12	-0.9963516	-1.8593482e-10	9.263529e-12	NaN	NaN	NaN	NaN	NaN	NaN	-0.26000014	0	0	NaN	NaN	NaN	NaN	NaN	NaN	0	1e-07
0	-0.9959403	2.6062708e-10	4.069964e-11	-0.9959403	2.6062708e-10	4.0699645e-11	NaN	NaN	NaN	NaN	NaN	NaN	-0.23999979	0	0	NaN	NaN	NaN	NaN	NaN	NaN	0	1e-07
0	-0.9954842	1.1647217e-10	-1.07150636e-10	-0.99548423	1.1647217e-10	-1.07150636e-10	NaN	NaN	NaN	NaN	NaN	NaN	-0.21999976	0	0	NaN	NaN	NaN	NaN	NaN	NaN	0	1e-07
0	-0.99497634	5.708216e-10	1.659126e-11	-0.99497634	5.708216e-10	1.659126e-11	NaN	NaN	NaN	NaN	NaN	NaN	-0.20000018	0	0	NaN	NaN	NaN	NaN	NaN	NaN	0	1e-07
0	-0.9944085	-1.1738166e-10	3.2802882e-11	-0.9944085	-1.1738166e-10	3.2802882e-11	NaN	NaN	NaN	NaN	NaN	NaN	-0.18000017	0	0	NaN	NaN	NaN	NaN	NaN	NaN	0	1e-07
0	-0.9937702	-3.0001956e-10	6.0280225e-11	-0.9937702	-3.0001956e-10	6.0280225e-11	NaN	NaN	NaN	NaN	NaN	NaN	-0.15999989	0	0	NaN	NaN	NaN	NaN	NaN	NaN	0	1e-07
0	-0.99304795	3.507239e-11	5.02327e-11	-0.9930479	3.507239e-11	5.02327e-11	NaN	NaN	NaN	NaN	NaN	NaN	-0.14000009	0	0	NaN	NaN	NaN	NaN	NaN	NaN	0	1e-07
0	-0.9922244	8.311076e-10	1.0395268e-10	-0.99222434	8.311076e-10	1.0395268e-10	NaN	NaN	NaN	NaN	NaN	NaN	-0.11999989	0	0	NaN	NaN	NaN	NaN	NaN	NaN	0	1e-07
0	-0.9912771	3.0246383e-10	9.5787774e-11	-0.99127716	3.0246383e-10	9.5787774e-11	NaN	NaN	NaN	NaN	NaN	NaN	-0.10000009	0	0	NaN	NaN	NaN	NaN	NaN	NaN	0	1e-07
0	-0.99017537	1.498961e-10	-6.8698186e-11	-0.99017537	1.498961e-10	-6.8698186e-11	NaN	NaN	NaN	NaN	NaN	NaN	-0.079999946	0	0	NaN	NaN	NaN	NaN	NaN	NaN	0	1e-07
0	-0.9888771	-6.382379e-10	-5.275043e-11	-0.9888771	-6.382379e-10	-5.2750426e-11	NaN	NaN	NaN	NaN	NaN	NaN	-0.059999947	0	0	NaN	NaN	NaN	NaN	NaN	NaN	0	1e-07
0	-0.9873222	-6.2414074e-11	-5.1362962e-11	-0.9873222	-6.2414074e-11	-5.136296e-11	NaN	NaN	NaN	NaN	NaN	NaN	-0.039999973	0	0	NaN	NaN	NaN	NaN	NaN	NaN	0	1e-07
0	-0.9854214	-9.2853725e-10	7.350062e-11	-0.9854213	-9.2853725e-10	7.350062e-11	NaN	NaN	NaN	NaN	NaN	NaN	-0.019999987	0	0	NaN	NaN	NaN	NaN	NaN	NaN	0	1e-07
0	-0.9830334	2.5312374e-10	-1.5118651e-11	-0.9830334	2.5312374e-10	-1.5118651e-11	NaN	NaN	NaN	NaN	NaN	NaN	2.8449465e-16	0	0	NaN	NaN	NaN	NaN	NaN	NaN	0	1e-07
0	-0.9799175	-4.887397e-10	8.430379e-11	-0.9799176	-4.887397e-10	8.4303786e-11	NaN	NaN	NaN	NaN	NaN	NaN	0.019999987	0	0	NaN	NaN	NaN	NaN	NaN	NaN	0	1e-07
0	-0.9756114	-1.9907702e-09	-5.5609423e-12	-0.9756114	-1.9907702e-09	-5.5609423e-12	NaN	NaN	NaN	NaN	NaN	NaN	0.039999973	0	0	NaN	NaN	NaN	NaN	NaN	NaN	0	1e-07
0	-0.96903074	-3.4405048e-09	9.9307194e-12	-0.9690308	-3.4405048e-09	9.9307194e-12	NaN	NaN	NaN	NaN	NaN	NaN	0.059999947	0	0	NaN	NaN	NaN	NaN	NaN	NaN	0	1e-07
0	-0.9562616	-2.5463714e-07	7.786537e-11	-0.95626163	-2.5463714e-07	7.786536e-11	NaN	NaN	NaN	NaN	NaN	NaN	0.079999946	0	0	NaN	NaN	NaN	NaN	NaN	NaN	0	1e-07
0	0.99127704	-7.4516095e-08	-4.429822e-12	0.991277	-7.4516095e-08	-4.429822e-12	NaN	NaN	NaN	NaN	NaN	NaN	0.10000009	0	0	NaN	NaN	NaN	NaN	NaN	NaN	0	1e-07
0	0.9922243	-5.2661733e-08	-4.2148864e-11	0.99222434	-5.2661733e-08	-4.2148864e-11	NaN	NaN	NaN	NaN	NaN	NaN	0.11999989	0	0	NaN	NaN	NaN	NaN	NaN	NaN	0	1e-07
0	0.9930478	-3.4957736e-08	-6.364526e-11	0.99304783	-3.4957736e-08	-6.3645256e-11	NaN	NaN	NaN	NaN	NaN	NaN	0.14000009	0	0	NaN	NaN	NaN	NaN	NaN	NaN	0	1e-07
0	0.99377	-2.5496718e-08	-4.7093517e-11	0.99377	-2.5496718e-08	-4.7093513e-11	NaN	NaN	NaN	NaN	NaN	NaN	0.15999989	0	0	NaN	NaN	NaN	NaN	NaN	NaN	0	1e-07
0	0.9944083	-1.7361629e-08	-3.276229e-11	0.9944083	-1.7361629e-08	-3.276229e-11	NaN	NaN	NaN	NaN	NaN	NaN	0.18000017	0	0	NaN	NaN	NaN	NaN	NaN	NaN	0	1e-07
0	0.9949763	-1.201704e-08	-8.503074e-11	0.9949762	-1.201704e-08	-8.503075e-11	NaN	NaN	NaN	NaN	NaN	NaN	0.20000018	0	0	NaN	NaN	NaN	NaN	NaN	NaN	0	1e-07
0	0.9954841	-8.376787e-09	4.5002065e-11	0.9954841	-8.376787e-09	4.500206e-11	NaN	NaN	NaN	NaN	NaN	NaN	0.21999976	0	0	NaN	NaN	NaN	NaN	NaN	NaN	0	1e-07
0	0.9959403	-5.0062567e-09	-2.8203433e-11	0.9959403	-5.0062567e-09	-2.8203433e-11	NaN	NaN	NaN	NaN	NaN	NaN	0.23999979	0	0	NaN	NaN	NaN	NaN	NaN	NaN	0	1e-07
0	0.9963516	-3.1574814e-09	-8.1369037e-11	0.9963515	-3.1574814e-09	-8.1369037e-11	NaN	NaN	NaN	NaN	NaN	NaN	0.26000014	0	0	NaN	NaN	NaN	NaN	NaN	NaN	0	1e-07
0	0.99672335	-8.1371354e-10	-1.48711e-10	0.9967233	-8.1371354e-10	-1.4871102e-10	NaN	NaN	NaN	NaN	NaN	NaN	0.28000018	0	0	NaN	NaN	NaN	NaN	NaN	NaN	0	1e-07
0	0.99705994	-9.471819e-10	5.4224862e-12	0.99705994	-9.471819e-10	5.422486e-12	NaN	NaN	NaN	NaN	NaN	NaN	0.29999962	0	0	NaN	NaN	NaN	NaN	NaN	NaN	0	1e-07
0	0.9973652	-1.3209842e-09	-1.2550967e-10	0.9973651	-1.3209842e-09	-1.2550967e-10	NaN	NaN	NaN	NaN	NaN	NaN	0.31999978	0	0	NaN	NaN	NaN	NaN	NaN	NaN	0	1e-07
0	0.99764156	-3.8897952e-10	2.825691e-13	0.9976415	-3.8897952e-10	2.825691e-13	NaN	NaN	NaN	NaN	NaN	NaN	0.34000012	0	0	NaN	NaN	NaN	NaN	NaN	NaN	0	1e-07
0	0.99789166	-1.9474555e-10	-1.3471196e-10	0.99789166	-1.9474555e-10	-1.3471196e-10	NaN	NaN	NaN	NaN	NaN	NaN	0.36000034	0	0	NaN	NaN	NaN	NaN	NaN	NaN	0	1e-07
0	0.9981174	7.128165e-11	4.9868838e-11	0.9981173	7.128165e-11	4.9868838e-11	NaN	NaN	NaN	NaN	NaN	NaN	0.3800001	0	0	NaN	NaN	NaN	NaN	NaN	NaN	0	1e-07
0	0.9983202	-5.951506e-11	2.513003e-11	0.9983202	-5.951506e-11	2.513003e-11	NaN	NaN	NaN	NaN	NaN	NaN	0.40000036	0	0	NaN	NaN	NaN	NaN	NaN	NaN	0	1e-07
0	0.99850154	3.4384584e-10	-9.0825805e-11	0.9985015	3.4384584e-10	-9.0825805e-11	NaN	NaN	NaN	NaN	NaN	NaN	0.41999933	0	0	NaN	NaN	NaN	NaN	NaN	NaN	0	1e-07
0	0.9986627	-6.849632e-11	-1.8395699e-10	0.9986627	-6.849632e-11	-1.83957e-10	NaN	NaN	NaN	NaN	NaN	NaN	0.43999952	0	0	NaN	NaN	NaN	NaN	NaN	NaN	0	1e-07
0	0.998805	3.7488235e-10	8.5322825e-12	0.9988049	3.7488235e-10	8.5322825e-12	NaN	NaN	NaN	NaN	NaN	NaN	0.45999935	0	0	NaN	NaN	NaN	NaN	NaN	NaN	0	1e-07
0	0.9989295	3.3492142e-10	-3.392859e-11	0.99892956	3.3492142e-10	-3.3928586e-11	NaN	NaN	NaN	NaN	NaN	NaN	0.47999957	0	0	NaN	NaN	NaN	NaN	NaN	NaN	0	1e-07
0	0.9990381	7.1622708e-12	2.5930242e-11	0.9990381	7.1622708e-12	2.5930242e-11	NaN	NaN	NaN	NaN	NaN	NaN	0.5	0	0	NaN	NaN	NaN	NaN	NaN	NaN	0	1e-07
0	0.9991321	2.504521e-10	-1.3375507e-11	0.99913216	2.504521e-10	-1.3375507e-11	NaN	NaN	NaN	NaN	NaN	NaN	0.5200003	0	0	NaN	NaN	NaN	NaN	NaN	NaN	0	1e-07
0	0.99921334	1.170406e-10	4.505872e-11	0.9992134	1.170406e-10	4.5058717e-11	NaN	NaN	NaN	NaN	NaN	NaN	0.5400007	0	0	NaN	NaN	NaN	NaN	NaN	NaN	0	1e-07
0	0.9992835	3.2684966e-11	-1.2605664e-10	0.99928355	3.2684966e-11	-1.2605664e-10	NaN	NaN	NaN	NaN	NaN	NaN	0.56000036	0	0	NaN	NaN	NaN	NaN	NaN	NaN	0	1e-07
0	0.999344	5.169909e-11	-7.1562053e-12	0.999344	5.169909e-11	-7.1562053e-12	NaN	NaN	NaN	NaN	NaN	NaN	0.58000094	0	0	NaN	NaN	NaN	NaN	NaN	NaN	0	1e-07
0	0.99934405	5.169909e-11	-7.1562053e-12	0.9992586	1.276176e-10	8.685745e-12	NaN	NaN	NaN	NaN	NaN	NaN	0.58000094	0	0	1.4489207	-3.287021e-10	-2.3228282e-08	NaN	NaN	NaN	0	1e-07
0	0.999344	5.169909e-11	-7.1562053e-12	0.9992587	1.276176e-10	8.685745e-12	NaN	NaN	NaN	NaN	NaN	NaN	0.58000094	0	0	1.1983865	-1.3148084e-09	-1.9612557e-08	NaN	NaN	NaN	3.5135135e-09	1e-07
0	0.99934393	5.169909e-11	-7.1562053e-12	0.99924874	7.17225e-09	-2.744391e-10	NaN	NaN	NaN	NaN	NaN	NaN	0.58000094	0	0	1.1977518	0.00035113053	-1.3575396e-07	0.6903224	1.745213e-06	-0.0027997133	3.5135135e-09	5e-08
0	0.999344	5.169909e-11	-7.1562053e-12	0.9992479	7.4727025e-09	-2.6622282e-10	NaN	NaN	NaN	NaN	NaN	NaN	0.58000094	0	0	1.197692	0.00036614548	-1.372879e-07	0.7328659	1.8666096e-06	-0.0045631304	3.5135135e-09	5.2727273e-08
