# t (s)	mx ()	my ()	mz ()	m.region21x ()	m.region21y ()	m.region21z ()	m.region22x ()	m.region22y ()	m.region22z ()	m.region23x ()	m.region23y ()	m.region23z ()	B_extx (T)	B_exty (T)	B_extz (T)	B_eff.region6x (T)	B_eff.region6y (T)	B_eff.region6z (T)	B_eff.region9x (T)	B_eff.region9y (T)	B_eff.region9z (T)	step_x (No unit)	step_y (No unit)	points_TOP_wire (No unit)
0	0	-0.2748347	0	-0.7071068	0.7071068	0	0.7071067	-0.7071067	0	-0.7071067	-0.7071067	0	0	0	0	0.0009972296	-0.016654652	0.0050793746	NaN	NaN	NaN	0	1e-07	145
0	0	-0.27483472	0	-0.70710677	0.7071068	0	0.7071067	-0.70710677	0	-0.7071067	-0.70710677	0	0	0	0	-0.02670366	-0.006023854	0.0050174138	NaN	NaN	NaN	1.3448276e-08	1e-07	145
0	0	-0.2748347	0	-0.7071068	0.7071069	0	0.7071067	-0.7071067	0	-0.7071067	-0.70710677	0	0	0	0	-0.05175244	-0.00049462914	0.004837423	NaN	NaN	NaN	2.6896553e-08	1e-07	145
0	0	-0.2748347	0	-0.7071068	0.7071068	0	0.70710677	-0.7071067	0	-0.7071067	-0.7071067	0	0	0	0	-0.072350435	0.0009934426	0.004565279	NaN	NaN	NaN	4.0344826e-08	1e-07	145
0	0	-0.27483475	0	-0.7071068	0.7071069	0	0.7071067	-0.7071067	0	-0.7071067	-0.7071067	0	0	0	0	-0.08827659	3.324105e-07	0.004231292	NaN	NaN	NaN	5.3793105e-08	1e-07	145
0	0	-0.2748347	0	-0.7071069	0.7071069	0	0.70710677	-0.7071067	0	-0.7071067	-0.7071067	0	0	0	0	-0.100094	-0.0022690217	0.0038635146	NaN	NaN	NaN	6.724138e-08	1e-07	145
0	0	-0.27483472	0	-0.7071068	0.7071069	0	0.7071067	-0.7071067	0	-0.7071067	-0.70710677	0	0	0	0	-0.10855624	-0.005063661	0.0034842289	NaN	NaN	NaN	8.068965e-08	1e-07	145
0	0	-0.2748347	0	-0.7071068	0.7071068	0	0.7071067	-0.7071067	0	-0.7071067	-0.7071067	0	0	0	0	-0.11436166	-0.007941501	0.0031092528	NaN	NaN	NaN	9.413793e-08	1e-07	145
0	0	-0.27483475	0	-0.7071068	0.7071068	0	0.70710677	-0.70710677	0	-0.7071067	-0.70710677	0	0	0	0	-0.11810847	-0.01063884	0.002748807	NaN	NaN	NaN	1.0758621e-07	1e-07	145
0	0	-0.27483472	0	-0.7071068	0.7071068	0	0.7071067	-0.70710677	0	-0.70710677	-0.7071067	0	0	0	0	-0.12030338	-0.01300794	0.0024087713	NaN	NaN	NaN	1.2103449e-07	1e-07	145
0	0	-0.27483472	0	-0.7071068	0.7071068	0	0.7071067	-0.7071067	0	-0.7071067	-0.7071067	0	0	0	0	-0.12137346	-0.014982556	0.0020918844	NaN	NaN	NaN	1.3448276e-07	1e-07	145
0	0	-0.27483472	0	-0.7071068	0.7071068	0	0.70710677	-0.70710677	0	-0.7071067	-0.70710677	0	0	0	0	-0.12167653	-0.016555693	0.0017986678	NaN	NaN	NaN	1.4793103e-07	1e-07	145
0	0	-0.2748347	0	-0.7071068	0.7071069	0	0.7071067	-0.7071067	0	-0.7071067	-0.70710677	0	0	0	0	-0.121507816	-0.017761754	0.0015281495	NaN	NaN	NaN	1.613793e-07	1e-07	145
0	0	-0.2748347	0	-0.7071068	0.7071068	0	0.7071067	-0.7071067	0	-0.7071067	-0.7071067	0	0	0	0	-0.1211078	-0.018661272	0.0012783624	NaN	NaN	NaN	1.7482759e-07	1e-07	145
0	0	-0.2748347	0	-0.7071068	0.7071068	0	0.7071067	-0.7071067	0	-0.7071067	-0.7071067	0	0	0	0	-0.12066997	-0.019328786	0.0010466643	NaN	NaN	NaN	1.8827586e-07	1e-07	145
0	0	-0.2748347	0	-0.7071068	0.7071068	0	0.7071067	-0.7071067	0	-0.7071067	-0.7071067	0	0	0	0	-0.12034912	-0.019844128	0.00083000114	NaN	NaN	NaN	2.0172413e-07	1e-07	145
0	0	-0.2748347	0	-0.7071068	0.7071068	0	0.7071067	-0.7071067	0	-0.70710677	-0.7071067	0	0	0	0	-0.12026903	-0.020287074	0.0006250214	NaN	NaN	NaN	2.1517242e-07	1e-07	145
0	0	-0.27483475	0	-0.7071068	0.7071068	0	0.7071067	-0.7071067	0	-0.7071067	-0.7071067	0	0	0	0	-0.120529264	-0.02073492	0.00042815966	NaN	NaN	NaN	2.2862069e-07	1e-07	145
0	0	-0.27483472	0	-0.7071069	0.7071068	0	0.70710677	-0.7071067	0	-0.70710677	-0.7071067	0	0	0	0	-0.12120994	-0.021262202	0.00023564938	NaN	NaN	NaN	2.4206898e-07	1e-07	145
0	0	-0.27483472	0	-0.7071068	0.7071068	0	0.7071067	-0.7071067	0	-0.70710677	-0.70710677	0	0	0	0	-0.12237556	-0.021942131	4.350163e-05	NaN	NaN	NaN	2.5551725e-07	1e-07	145
0	0	-0.27483472	0	-0.7071068	0.7071068	0	0.7071067	-0.7071067	0	-0.7071067	-0.7071067	0	0	0	0	-0.124076046	-0.022849051	-0.00015256608	NaN	NaN	NaN	2.6896552e-07	1e-07	145
0	0	-0.2748347	0	-0.7071068	0.7071069	0	0.7071067	-0.70710677	0	-0.7071067	-0.7071067	0	0	0	0	-0.12634541	-0.02406164	-0.00035715476	NaN	NaN	NaN	2.824138e-07	1e-07	145
0	0	-0.2748347	0	-0.7071068	0.7071068	0	0.7071067	-0.70710677	0	-0.7071067	-0.7071067	0	0	0	0	-0.12919599	-0.0256661	-0.00057523325	NaN	NaN	NaN	2.9586207e-07	1e-07	145
0	0	-0.27483475	0	-0.7071069	0.7071069	0	0.70710677	-0.70710677	0	-0.7071067	-0.7071067	0	0	0	0	-0.13260832	-0.027758481	-0.0008121505	NaN	NaN	NaN	3.0931034e-07	1e-07	145
0	0	-0.27483472	0	-0.7071068	0.7071068	0	0.7071067	-0.7071067	0	-0.7071067	-0.70710677	0	0	0	0	-0.13651279	-0.030443989	-0.0010734873	NaN	NaN	NaN	3.227586e-07	1e-07	145
0	0	-0.2748347	0	-0.7071068	0.7071069	0	0.7071067	-0.7071067	0	-0.7071067	-0.7071067	0	0	0	0	-0.14076304	-0.03383131	-0.0013647916	NaN	NaN	NaN	3.362069e-07	1e-07	145
0	0	-0.27483472	0	-0.7071068	0.7071069	0	0.7071067	-0.70710677	0	-0.7071067	-0.7071067	0	0	0	0	-0.14509834	-0.038018607	-0.0016909272	NaN	NaN	NaN	3.4965518e-07	1e-07	145
0	0	-0.2748347	0	-0.7071069	0.7071068	0	0.70710677	-0.7071067	0	-0.7071067	-0.7071067	0	0	0	0	-0.14909193	-0.043067876	-0.0020550669	NaN	NaN	NaN	3.6310345e-07	1e-07	145
0	0	-0.27483472	0	-0.7071068	0.7071068	0	0.70710677	-0.7071067	0	-0.7071067	-0.70710677	0	0	0	0	-0.1520835	-0.048960373	-0.0024570127	NaN	NaN	NaN	3.7655172e-07	1e-07	145
0	0	-0.2748347	0	-0.7071068	0.7071068	0	0.70710677	-0.7071067	0	-0.7071067	-0.70710677	0	0	0	0	-0.15308107	-0.055498682	-0.0028909983	NaN	NaN	NaN	3.9e-07	1e-07	145
0	0	-0.27483472	0	-0.7071068	0.7071068	0	0.70710677	-0.7071067	0	-0.7071067	-0.70710677	0	0	0	0	-0.15069963	-0.062079333	-0.0033432432	NaN	NaN	NaN	4.0344827e-07	1e-07	145
0	0	-0.2748347	0	-0.7071068	0.7071069	0	0.7071067	-0.7071067	0	-0.70710677	-0.70710677	0	0	0	0	-0.14331585	-0.06735833	-0.0037906568	NaN	NaN	NaN	4.1689654e-07	1e-07	145
0	0	-0.2748347	0	-0.7071068	0.7071068	0	0.7071067	-0.7071067	0	-0.7071067	-0.7071067	0	0	0	0	-0.12978539	-0.06902648	-0.0042025046	NaN	NaN	NaN	4.3034484e-07	1e-07	145
0	0	-0.27483472	0	-0.7071068	0.7071068	0	0.7071067	-0.7071067	0	-0.7071067	-0.7071067	0	0	0	0	-0.11071817	-0.064891815	-0.0045458633	NaN	NaN	NaN	4.437931e-07	1e-07	145
0	0	-0.2748347	0	-0.7071068	0.7071068	0	0.70710677	-0.7071067	0	-0.7071067	-0.7071067	0	0	0	0	-0.088247195	-0.05519625	-0.0047925273	NaN	NaN	NaN	4.5724138e-07	1e-07	145
0	0	-0.27483472	0	-0.7071068	0.7071068	0	0.70710677	-0.7071067	0	-0.7071067	-0.7071067	0	0	0	0	-0.06439191	-0.042892806	-0.004924097	NaN	NaN	NaN	4.7068966e-07	1e-07	145
0	0	-0.2748347	0	-0.7071068	0.7071068	0	0.7071067	-0.7071067	0	-0.7071067	-0.70710677	0	0	0	0	-0.04092359	-0.031458184	-0.004934925	NaN	NaN	NaN	4.8413796e-07	1e-07	145
0	0	-0.27483475	0	-0.7071068	0.7071068	0	0.7071067	-0.7071067	0	-0.7071067	-0.70710677	0	0	0	0	-0.01960388	-0.0229818	-0.004833266	NaN	NaN	NaN	4.975862e-07	1e-07	145
0	0	-0.2748347	0	-0.7071068	0.7071068	0	0.7071067	-0.7071067	0	-0.7071067	-0.7071067	0	0	0	0	-0.0017052952	-0.017768217	-0.004639276	NaN	NaN	NaN	5.110345e-07	1e-07	145
0	0	-0.2748347	0	-0.7071068	0.7071068	0	0.7071067	-0.70710677	0	-0.7071067	-0.70710677	0	0	0	0	0.012258635	-0.015181979	-0.00437952	NaN	NaN	NaN	5.2448274e-07	1e-07	145
0	0	-0.2748347	0	-0.7071068	0.7071068	0	0.7071067	-0.7071067	0	-0.7071067	-0.7071067	0	0	0	0	0.022392716	-0.014362895	-0.0040809577	NaN	NaN	NaN	5.3793104e-07	1e-07	145
0	0	-0.27483475	0	-0.7071068	0.7071068	0	0.70710677	-0.7071067	0	-0.70710677	-0.70710677	0	0	0	0	0.029123582	-0.0145982765	-0.0037667456	NaN	NaN	NaN	5.513793e-07	1e-07	145
0	0	-0.2748347	0	-0.7071068	0.7071068	0	0.70710677	-0.70710677	0	-0.7071067	-0.7071067	0	0	0	0	0.032973252	-0.015380041	-0.003454653	NaN	NaN	NaN	5.648276e-07	1e-07	145
0	0	-0.2748347	0	-0.7071068	0.7071069	0	0.7071067	-0.7071067	0	-0.7071067	-0.7071067	0	0	0	0	0.034449026	-0.016378967	-0.0031571204	NaN	NaN	NaN	5.782759e-07	1e-07	145
0	0	-0.27483472	0	-0.7071068	0.7071068	0	0.70710677	-0.7071067	0	-0.70710677	-0.70710677	0	0	0	0	0.033998646	-0.017398717	-0.0028822296	NaN	NaN	NaN	5.9172413e-07	1e-07	145
0	0	-0.2748347	0	-0.7071068	0.7071068	0	0.7071067	-0.70710677	0	-0.70710677	-0.7071067	0	0	0	0	0.031999193	-0.018338433	-0.0026347933	NaN	NaN	NaN	6.0517243e-07	1e-07	145
0	0	-0.27483475	0	-0.7071069	0.7071068	0	0.7071067	-0.7071067	0	-0.70710677	-0.70710677	0	0	0	0	0.028759079	-0.019166518	-0.002417397	NaN	NaN	NaN	6.186207e-07	1e-07	145
0	0	-0.2748347	0	-0.7071068	0.7071068	0	0.7071067	-0.7071067	0	-0.7071067	-0.70710677	0	0	0	0	0.024522929	-0.0199019	-0.002231171	NaN	NaN	NaN	6.32069e-07	1e-07	145
0	0	-0.27483475	0	-0.7071069	0.7071068	0	0.7071067	-0.70710677	0	-0.7071067	-0.7071067	0	0	0	0	0.01947767	-0.020600278	-0.0020764587	NaN	NaN	NaN	6.455172e-07	1e-07	145
0	0	-0.2748347	0	-0.7071068	0.7071068	0	0.70710677	-0.7071067	0	-0.7071067	-0.7071067	0	0	0	0	0.013758188	-0.021344265	-0.0019532768	NaN	NaN	NaN	6.589655e-07	1e-07	145
0	0	-0.2748347	0	-0.7071068	0.7071068	0	0.7071067	-0.7071067	0	-0.7071067	-0.7071067	0	0	0	0	0.007453305	-0.022237388	-0.0018616975	NaN	NaN	NaN	6.724138e-07	1e-07	145
0	0	-0.2748347	0	-0.7071068	0.7071068	0	0.7071067	-0.7071067	0	-0.7071067	-0.7071067	0	0	0	0	0.0006118708	-0.023402074	-0.0018021483	NaN	NaN	NaN	6.8586206e-07	1e-07	145
0	0	-0.2748347	0	-0.7071068	0.7071068	0	0.7071067	-0.7071067	0	-0.7071067	-0.7071067	0	0	0	0	-0.0067517376	-0.024981568	-0.0017756943	NaN	NaN	NaN	6.9931036e-07	1e-07	145
0	0	-0.27483472	0	-0.7071068	0.7071069	0	0.7071067	-0.7071067	0	-0.7071067	-0.70710677	0	0	0	0	-0.014650925	-0.02714601	-0.0017842372	NaN	NaN	NaN	7.127586e-07	1e-07	145
0	0	-0.2748347	0	-0.7071068	0.7071068	0	0.7071067	-0.7071067	0	-0.70710677	-0.70710677	0	0	0	0	-0.023119083	-0.030102558	-0.0018307162	NaN	NaN	NaN	7.262069e-07	1e-07	145
0	0	-0.27483472	0	-0.7071068	0.7071068	0	0.7071067	-0.7071067	0	-0.7071067	-0.7071067	0	0	0	0	-0.03219854	-0.034110144	-0.0019192629	NaN	NaN	NaN	7.3965515e-07	1e-07	145
0	0	-0.2748347	0	-0.7071068	0.7071068	0	0.7071067	-0.7071067	0	-0.7071067	-0.70710677	0	0	0	0	-0.041920964	-0.03949844	-0.0020551875	NaN	NaN	NaN	7.5310345e-07	1e-07	145
0	0	-0.27483475	0	-0.7071068	0.7071068	0	0.7071067	-0.70710665	0	-0.7071067	-0.7071067	0	0	0	0	-0.05227393	-0.046690024	-0.0022447242	NaN	NaN	NaN	7.6655175e-07	1e-07	145
0	0	-0.2748347	0	-0.7071069	0.7071068	0	0.70710677	-0.7071067	0	-0.70710677	-0.7071067	0	0	0	0	-0.063139744	-0.05621948	-0.002494259	NaN	NaN	NaN	7.8e-07	1e-07	145
0	0	-0.27483475	0	-0.7071068	0.7071068	0	0.7071067	-0.7071067	0	-0.7071067	-0.7071067	0	0	0	0	-0.074188516	-0.06873298	-0.00280874	NaN	NaN	NaN	7.934483e-07	1e-07	145
0	0	-0.27483475	0	-0.7071068	0.7071068	0	0.7071067	-0.7071067	0	-0.70710677	-0.7071067	0	0	0	0	-0.08469371	-0.084912226	-0.0031889875	NaN	NaN	NaN	8.0689654e-07	1e-07	145
0	0	-0.2748347	0	-0.7071068	0.7071068	0	0.7071067	-0.7071067	0	-0.7071067	-0.7071067	0	0	0	0	-0.09331505	-0.105161734	-0.0036282267	NaN	NaN	NaN	8.2034484e-07	1e-07	145
0	0	-0.2748347	0	-0.7071069	0.7071068	0	0.70710677	-0.70710665	0	-0.7071067	-0.7071067	0	0	0	0	-0.09812557	-0.1289946	-0.004109268	NaN	NaN	NaN	8.337931e-07	1e-07	145
0	0	-0.2748347	0	-0.7071068	0.7071068	0	0.7071067	-0.70710677	0	-0.70710677	-0.70710677	0	0	0	0	-0.0974023	-0.15430307	-0.004605127	NaN	NaN	NaN	8.472414e-07	1e-07	145
0	0	-0.2748347	0	-0.7071068	0.7071068	0	0.7071067	-0.7071067	0	-0.7071067	-0.7071067	0	0	0	0	-0.091125324	-0.17802021	-0.005084644	NaN	NaN	NaN	8.606897e-07	1e-07	145
0	0	-0.2748347	0	-0.7071068	0.7071068	0	0.7071067	-0.70710677	0	-0.70710677	-0.7071067	0	0	0	0	-0.08097685	-0.1980264	-0.0055206344	NaN	NaN	NaN	8.741379e-07	1e-07	145
0	0	-0.27483475	0	-0.7071068	0.7071069	0	0.7071067	-0.7071067	0	-0.7071067	-0.7071067	0	0	0	0	-0.068839855	-0.21381012	-0.0058954936	NaN	NaN	NaN	8.875862e-07	1e-07	145
0	0	-0.27483472	0	-0.7071068	0.7071069	0	0.70710677	-0.7071067	0	-0.70710677	-0.70710677	0	0	0	0	-0.05600563	-0.22573659	-0.0062017757	NaN	NaN	NaN	9.0103447e-07	1e-07	145
0	0	-0.27483475	0	-0.7071068	0.7071068	0	0.70710677	-0.70710665	0	-0.70710677	-0.70710677	0	0	0	0	-0.043144397	-0.23443042	-0.006439331	NaN	NaN	NaN	9.1448277e-07	1e-07	145
0	0	-0.2748347	0	-0.7071069	0.7071068	0	0.7071067	-0.7071067	0	-0.7071067	-0.7071067	0	0	0	0	-0.030520765	-0.24045849	-0.0066117295	NaN	NaN	NaN	9.27931e-07	1e-07	145
0	0	-0.2748347	0	-0.7071068	0.7071068	0	0.70710677	-0.7071067	0	-0.7071067	-0.70710677	0	0	0	0	-0.018175831	-0.24424733	-0.006723483	NaN	NaN	NaN	9.413793e-07	1e-07	145
0	0	-0.27483472	0	-0.7071069	0.7071068	0	0.7071067	-0.7071067	0	-0.7071067	-0.7071067	0	0	0	0	-0.0060342792	-0.2460742	-0.006778335	NaN	NaN	NaN	9.548276e-07	1e-07	145
0	0	-0.27483472	0	-0.7071069	0.7071068	0	0.7071067	-0.7071067	0	-0.7071067	-0.7071067	0	0	0	0	NaN	NaN	NaN	NaN	NaN	NaN	9.682759e-07	1e-07	145
0	0	-0.2748347	0	-0.7071068	0.7071068	0	0.7071067	-0.7071067	0	-0.7071067	-0.7071067	0	0	0	0	0.0060342727	-0.24607417	-0.0067783343	NaN	NaN	NaN	9.817242e-07	1e-07	145
0	0	-0.27483475	0	-0.7071068	0.7071068	0	0.7071067	-0.7071067	0	-0.7071067	-0.70710677	0	0	0	0	0.018175846	-0.24424736	-0.006723485	NaN	NaN	NaN	9.951724e-07	1e-07	145
0	0	-0.27483472	0	-0.7071068	0.7071068	0	0.70710677	-0.7071067	0	-0.7071067	-0.7071067	0	0	0	0	0.03052073	-0.24045847	-0.006611723	NaN	NaN	NaN	1.0086206e-06	1e-07	145
0	0	-0.27483472	0	-0.7071068	0.7071068	0	0.7071067	-0.7071067	0	-0.7071067	-0.7071067	0	0	0	0	0.043144424	-0.23443046	-0.006439328	NaN	NaN	NaN	1.022069e-06	1e-07	145
0	0	-0.2748347	0	-0.7071069	0.70710677	0	0.7071067	-0.7071067	0	-0.7071067	-0.70710677	0	0	0	0	0.056005623	-0.22573659	-0.006201774	NaN	NaN	NaN	1.0355172e-06	1e-07	145
0	0	-0.27483475	0	-0.7071068	0.7071069	0	0.70710677	-0.7071067	0	-0.7071067	-0.70710677	0	0	0	0	0.06883984	-0.21381015	-0.005895492	NaN	NaN	NaN	1.0489655e-06	1e-07	145
0	0	-0.2748347	0	-0.7071068	0.7071068	0	0.70710677	-0.7071067	0	-0.70710677	-0.7071067	0	0	0	0	0.08097685	-0.1980264	-0.0055206325	NaN	NaN	NaN	1.0624138e-06	1e-07	145
0	0	-0.2748347	0	-0.7071069	0.7071068	0	0.70710677	-0.7071067	0	-0.7071067	-0.7071067	0	0	0	0	0.091125295	-0.17802024	-0.005084652	NaN	NaN	NaN	1.0758621e-06	1e-07	145
0	0	-0.2748347	0	-0.7071068	0.7071069	0	0.70710677	-0.7071067	0	-0.7071067	-0.7071067	0	0	0	0	0.09740232	-0.15430307	-0.0046051354	NaN	NaN	NaN	1.0893103e-06	1e-07	145
0	0	-0.27483472	0	-0.7071068	0.7071068	0	0.7071067	-0.7071067	0	-0.7071067	-0.7071067	0	0	0	0	0.09812555	-0.12899461	-0.004109273	NaN	NaN	NaN	1.1027586e-06	1e-07	145
0	0	-0.27483475	0	-0.7071068	0.7071068	0	0.7071067	-0.70710665	0	-0.7071067	-0.7071067	0	0	0	0	0.093315035	-0.10516172	-0.0036282274	NaN	NaN	NaN	1.1162069e-06	1e-07	145
0	0	-0.2748347	0	-0.7071069	0.7071068	0	0.70710677	-0.70710677	0	-0.7071067	-0.70710677	0	0	0	0	0.084693745	-0.08491225	-0.0031889917	NaN	NaN	NaN	1.1296552e-06	1e-07	145
0	0	-0.2748347	0	-0.7071068	0.7071068	0	0.7071067	-0.7071067	0	-0.7071067	-0.7071067	0	0	0	0	0.074188545	-0.06873298	-0.002808742	NaN	NaN	NaN	1.1431034e-06	1e-07	145
0	0	-0.27483472	0	-0.7071068	0.7071069	0	0.7071067	-0.70710677	0	-0.70710677	-0.7071067	0	0	0	0	0.063139744	-0.05621948	-0.0024942632	NaN	NaN	NaN	1.1565518e-06	1e-07	145
0	0	-0.27483475	0	-0.7071069	0.7071068	0	0.70710677	-0.7071067	0	-0.7071067	-0.7071067	0	0	0	0	0.052273948	-0.046690013	-0.0022447305	NaN	NaN	NaN	1.17e-06	1e-07	145
0	0	-0.2748347	0	-0.7071068	0.7071068	0	0.7071067	-0.70710677	0	-0.70710677	-0.7071067	0	0	0	0	0.041920982	-0.03949845	-0.0020551956	NaN	NaN	NaN	1.1834483e-06	1e-07	145
0	0	-0.2748347	0	-0.7071068	0.7071068	0	0.70710677	-0.70710665	0	-0.7071067	-0.7071067	0	0	0	0	0.03219854	-0.034110136	-0.0019192661	NaN	NaN	NaN	1.1968965e-06	1e-07	145
0	0	-0.2748347	0	-0.7071068	0.7071068	0	0.7071067	-0.7071067	0	-0.7071067	-0.7071067	0	0	0	0	0.023119075	-0.030102558	-0.0018307173	NaN	NaN	NaN	1.2103449e-06	1e-07	145
0	0	-0.2748347	0	-0.7071068	0.7071068	0	0.7071067	-0.7071067	0	-0.70710677	-0.7071067	0	0	0	0	0.014650856	-0.027145995	-0.0017842363	NaN	NaN	NaN	1.2237931e-06	1e-07	145
0	0	-0.2748347	0	-0.7071068	0.7071069	0	0.7071067	-0.70710677	0	-0.7071067	-0.7071067	0	0	0	0	0.006751741	-0.024981575	-0.0017756956	NaN	NaN	NaN	1.2372413e-06	1e-07	145
0	0	-0.2748347	0	-0.7071068	0.7071068	0	0.7071067	-0.7071067	0	-0.70710677	-0.7071067	0	0	0	0	-0.0006118274	-0.023402067	-0.0018021512	NaN	NaN	NaN	1.2506897e-06	1e-07	145
0	0	-0.27483472	0	-0.7071069	0.7071068	0	0.7071067	-0.7071067	0	-0.7071067	-0.7071067	0	0	0	0	-0.0074533066	-0.02223739	-0.0018616985	NaN	NaN	NaN	1.264138e-06	1e-07	145
0	0	-0.2748347	0	-0.7071068	0.7071068	0	0.7071067	-0.7071067	0	-0.70710677	-0.7071067	0	0	0	0	-0.013758206	-0.021344254	-0.0019532812	NaN	NaN	NaN	1.2775862e-06	1e-07	145
0	0	-0.27483472	0	-0.7071068	0.7071068	0	0.7071067	-0.7071067	0	-0.7071067	-0.7071067	0	0	0	0	-0.019477673	-0.020600278	-0.002076461	NaN	NaN	NaN	1.2910344e-06	1e-07	145
0	0	-0.27483472	0	-0.7071069	0.7071068	0	0.7071067	-0.7071067	0	-0.7071067	-0.70710677	0	0	0	0	-0.024522938	-0.0199019	-0.0022311672	NaN	NaN	NaN	1.3044828e-06	1e-07	145
0	0	-0.27483472	0	-0.7071068	0.7071068	0	0.70710677	-0.7071067	0	-0.7071067	-0.70710677	0	0	0	0	-0.02875903	-0.01916652	-0.002417389	NaN	NaN	NaN	1.317931e-06	1e-07	145
0	0	-0.27483472	0	-0.7071069	0.7071068	0	0.70710677	-0.70710677	0	-0.70710677	-0.70710677	0	0	0	0	-0.031999215	-0.018338434	-0.0026347877	NaN	NaN	NaN	1.3313793e-06	1e-07	145
0	0	-0.2748347	0	-0.7071069	0.7071068	0	0.7071067	-0.7071067	0	-0.70710677	-0.7071067	0	0	0	0	-0.03399862	-0.017398719	-0.0028822308	NaN	NaN	NaN	1.3448276e-06	1e-07	145
0	0	-0.2748347	0	-0.7071068	0.7071068	0	0.7071067	-0.70710677	0	-0.7071067	-0.7071067	0	0	0	0	-0.034449052	-0.016378978	-0.0031571288	NaN	NaN	NaN	1.3582759e-06	1e-07	145
0	0	-0.27483472	0	-0.7071068	0.7071069	0	0.70710677	-0.70710677	0	-0.70710677	-0.7071067	0	0	0	0	-0.032973215	-0.015380042	-0.003454659	NaN	NaN	NaN	1.3717241e-06	1e-07	145
0	0	-0.27483472	0	-0.7071068	0.7071068	0	0.70710677	-0.7071067	0	-0.7071067	-0.70710677	0	0	0	0	-0.029123595	-0.014598276	-0.0037667523	NaN	NaN	NaN	1.3851724e-06	1e-07	145
0	0	-0.27483472	0	-0.7071069	0.7071068	0	0.7071067	-0.7071067	0	-0.7071067	-0.7071067	0	0	0	0	-0.0223927	-0.0143628875	-0.0040809587	NaN	NaN	NaN	1.3986207e-06	1e-07	145
0	0	-0.27483475	0	-0.7071068	0.7071068	0	0.7071067	-0.7071067	0	-0.7071067	-0.7071067	0	0	0	0	-0.012258606	-0.01518197	-0.00437952	NaN	NaN	NaN	1.412069e-06	1e-07	145
0	0	-0.2748347	0	-0.7071068	0.7071068	0	0.7071067	-0.70710677	0	-0.70710677	-0.7071067	0	0	0	0	0.0017053254	-0.017768217	-0.004639271	NaN	NaN	NaN	1.4255172e-06	1e-07	145
0	0	-0.2748347	0	-0.7071068	0.7071068	0	0.7071067	-0.70710665	0	-0.7071067	-0.7071067	0	0	0	0	0.019603929	-0.022981782	-0.0048332685	NaN	NaN	NaN	1.4389656e-06	1e-07	145
0	0	-0.27483472	0	-0.7071068	0.7071068	0	0.70710665	-0.7071067	0	-0.7071067	-0.7071067	0	0	0	0	0.040923562	-0.03145819	-0.0049349247	NaN	NaN	NaN	1.4524138e-06	1e-07	145
0	0	-0.2748347	0	-0.7071068	0.7071069	0	0.70710677	-0.7071067	0	-0.7071067	-0.7071067	0	0	0	0	0.064391926	-0.042892788	-0.0049240943	NaN	NaN	NaN	1.465862e-06	1e-07	145
0	0	-0.2748347	0	-0.7071069	0.7071068	0	0.7071067	-0.70710677	0	-0.70710677	-0.70710677	0	0	0	0	0.08824717	-0.05519627	-0.0047925194	NaN	NaN	NaN	1.4793103e-06	1e-07	145
0	0	-0.2748347	0	-0.7071068	0.7071068	0	0.7071067	-0.70710677	0	-0.7071067	-0.70710677	0	0	0	0	0.11071814	-0.0648918	-0.0045458535	NaN	NaN	NaN	1.4927587e-06	1e-07	145
0	0	-0.27483472	0	-0.7071068	0.7071068	0	0.70710677	-0.7071067	0	-0.7071067	-0.7071067	0	0	0	0	0.12978533	-0.0690265	-0.0042024995	NaN	NaN	NaN	1.5062069e-06	1e-07	145
0	0	-0.27483475	0	-0.7071069	0.7071068	0	0.70710677	-0.7071067	0	-0.70710677	-0.70710677	0	0	0	0	0.1433159	-0.06735833	-0.0037906552	NaN	NaN	NaN	1.5196551e-06	1e-07	145
0	0	-0.2748347	0	-0.7071068	0.7071068	0	0.7071067	-0.70710677	0	-0.7071067	-0.7071067	0	0	0	0	0.15069962	-0.062079366	-0.0033432397	NaN	NaN	NaN	1.5331035e-06	1e-07	145
0	0	-0.27483475	0	-0.7071068	0.7071068	0	0.70710677	-0.7071067	0	-0.7071067	-0.7071067	0	0	0	0	0.15308103	-0.055498675	-0.0028909931	NaN	NaN	NaN	1.5465517e-06	1e-07	145
0	0	-0.27483472	0	-0.7071068	0.7071068	0	0.70710677	-0.7071067	0	-0.7071067	-0.7071067	0	0	0	0	0.15208355	-0.04896039	-0.0024570113	NaN	NaN	NaN	1.56e-06	1e-07	145
0	0	-0.27483472	0	-0.7071068	0.7071068	0	0.7071067	-0.70710677	0	-0.7071067	-0.7071067	0	0	0	0	0.14909193	-0.043067876	-0.0020550585	NaN	NaN	NaN	1.5734482e-06	1e-07	145
0	0	-0.27483475	0	-0.7071068	0.70710677	0	0.7071067	-0.7071067	0	-0.70710677	-0.7071067	0	0	0	0	0.14509834	-0.038018618	-0.0016909225	NaN	NaN	NaN	1.5868966e-06	1e-07	145
0	0	-0.27483472	0	-0.7071068	0.7071068	0	0.7071067	-0.70710677	0	-0.7071067	-0.7071067	0	0	0	0	0.14076306	-0.033831306	-0.0013647848	NaN	NaN	NaN	1.6003448e-06	1e-07	145
0	0	-0.2748347	0	-0.7071068	0.7071068	0	0.70710665	-0.7071067	0	-0.70710677	-0.70710677	0	0	0	0	0.13651279	-0.030443996	-0.0010734859	NaN	NaN	NaN	1.6137931e-06	1e-07	145
0	0	-0.27483472	0	-0.7071068	0.7071068	0	0.70710677	-0.7071067	0	-0.7071067	-0.70710677	0	0	0	0	0.13260828	-0.027758475	-0.0008121494	NaN	NaN	NaN	1.6272414e-06	1e-07	145
0	0	-0.27483475	0	-0.7071068	0.7071068	0	0.7071067	-0.7071067	0	-0.7071067	-0.7071067	0	0	0	0	0.12919602	-0.02566612	-0.0005752403	NaN	NaN	NaN	1.6406897e-06	1e-07	145
0	0	-0.27483472	0	-0.7071068	0.7071068	0	0.7071067	-0.7071067	0	-0.70710677	-0.7071067	0	0	0	0	0.12634538	-0.024061643	-0.0003571597	NaN	NaN	NaN	1.6541379e-06	1e-07	145
0	0	-0.2748347	0	-0.70710677	0.7071069	0	0.7071067	-0.7071067	0	-0.7071067	-0.7071067	0	0	0	0	0.12407611	-0.022849064	-0.00015257286	NaN	NaN	NaN	1.6675862e-06	1e-07	145
0	0	-0.27483472	0	-0.7071068	0.7071068	0	0.7071067	-0.70710665	0	-0.7071067	-0.7071067	0	0	0	0	0.12237554	-0.021942135	4.3498974e-05	NaN	NaN	NaN	1.6810345e-06	1e-07	145
0	0	-0.27483472	0	-0.7071068	0.7071068	0	0.70710677	-0.7071067	0	-0.70710677	-0.7071067	0	0	0	0	0.121209934	-0.02126222	0.00023565708	NaN	NaN	NaN	1.6944828e-06	1e-07	145
0	0	-0.2748347	0	-0.7071069	0.7071068	0	0.7071067	-0.7071067	0	-0.7071067	-0.7071067	0	0	0	0	0.12052926	-0.020734927	0.00042816892	NaN	NaN	NaN	1.707931e-06	1e-07	145
0	0	-0.2748347	0	-0.7071069	0.7071068	0	0.7071067	-0.7071067	0	-0.7071067	-0.70710677	0	0	0	0	0.120269045	-0.0202871	0.00062502804	NaN	NaN	NaN	1.7213794e-06	1e-07	145
0	0	-0.27483475	0	-0.7071069	0.7071068	0	0.70710665	-0.7071067	0	-0.70710677	-0.7071067	0	0	0	0	0.12034912	-0.019844146	0.00083000713	NaN	NaN	NaN	1.7348276e-06	1e-07	145
0	0	-0.2748347	0	-0.7071068	0.7071068	0	0.7071067	-0.7071067	0	-0.7071067	-0.7071067	0	0	0	0	0.12066995	-0.019328816	0.0010466704	NaN	NaN	NaN	1.7482758e-06	1e-07	145
0	0	-0.2748347	0	-0.7071069	0.7071068	0	0.7071067	-0.70710677	0	-0.7071067	-0.7071067	0	0	0	0	0.12110779	-0.018661294	0.0012783671	NaN	NaN	NaN	1.7617241e-06	1e-07	145
0	0	-0.27483472	0	-0.7071068	0.7071068	0	0.70710677	-0.70710677	0	-0.7071067	-0.7071067	0	0	0	0	0.12150783	-0.017761772	0.001528158	NaN	NaN	NaN	1.7751724e-06	1e-07	145
0	0	-0.2748347	0	-0.7071068	0.7071069	0	0.70710677	-0.70710677	0	-0.7071067	-0.70710677	0	0	0	0	0.12167653	-0.016555723	0.0017986707	NaN	NaN	NaN	1.7886207e-06	1e-07	145
0	0	-0.27483472	0	-0.7071069	0.7071068	0	0.70710677	-0.7071067	0	-0.7071067	-0.7071067	0	0	0	0	0.12137349	-0.0149825765	0.0020918879	NaN	NaN	NaN	1.8020689e-06	1e-07	145
0	0	-0.27483475	0	-0.7071068	0.7071068	0	0.7071067	-0.7071067	0	-0.7071067	-0.7071067	0	0	0	0	0.12030335	-0.013007962	0.0024087736	NaN	NaN	NaN	1.8155173e-06	1e-07	145
0	0	-0.2748347	0	-0.7071068	0.7071068	0	0.7071067	-0.7071067	0	-0.7071067	-0.7071067	0	0	0	0	0.1181085	-0.010638854	0.0027488081	NaN	NaN	NaN	1.8289655e-06	1e-07	145
0	0	-0.2748347	0	-0.7071069	0.7071068	0	0.7071067	-0.7071067	0	-0.70710677	-0.7071067	0	0	0	0	0.1143616	-0.007941515	0.0031092574	NaN	NaN	NaN	1.8424138e-06	1e-07	145
0	0	-0.27483472	0	-0.7071068	0.7071068	0	0.70710677	-0.7071067	0	-0.7071067	-0.7071067	0	0	0	0	0.108556196	-0.005063669	0.0034842293	NaN	NaN	NaN	1.855862e-06	1e-07	145
0	0	-0.27483472	0	-0.7071068	0.7071068	0	0.7071067	-0.7071067	0	-0.70710677	-0.7071067	0	0	0	0	0.100094005	-0.0022690387	0.0038635158	NaN	NaN	NaN	1.8693104e-06	1e-07	145
0	0	-0.2748347	0	-0.7071068	0.7071069	0	0.7071067	-0.70710677	0	-0.7071067	-0.7071067	0	0	0	0	0.08827659	3.312643e-07	0.0042312937	NaN	NaN	NaN	1.8827586e-06	1e-07	145
0	0	-0.2748347	0	-0.7071068	0.7071068	0	0.7071067	-0.70710677	0	-0.70710677	-0.7071067	0	0	0	0	0.072350405	0.000993433	0.0045652865	NaN	NaN	NaN	1.8962069e-06	1e-07	145
0	0	-0.2748347	0	-0.7071068	0.7071068	0	0.70710677	-0.70710677	0	-0.70710677	-0.70710677	0	0	0	0	0.051752403	-0.0004946211	0.0048374245	NaN	NaN	NaN	1.909655e-06	1e-07	145
0	0	-0.27483472	0	-0.7071068	0.7071069	0	0.7071067	-0.70710665	0	-0.7071067	-0.70710677	0	0	0	0	0.026703656	-0.006023853	0.0050174156	NaN	NaN	NaN	1.9231034e-06	1e-07	145
0	0	-0.27483472	0	-0.7071069	0.7071068	0	0.7071067	-0.70710677	0	-0.7071067	-0.7071067	0	0	0	0	-0.0009972232	-0.016654644	0.005079377	NaN	NaN	NaN	1.9365518e-06	1e-07	145
0	0	-0.27483472	0	-0.7071068	0.7071068	0	0.70710677	-0.7071067	0	-0.7071067	-0.7071067	0	0	0	0	-0.0009972232	-0.016654644	0.005079377	-8.2266824e-09	-0.09285679	-1.7074248e-09	1.9365518e-06	5e-08	145
0	0	-0.27483475	0	-0.7071068	0.7071068	0	0.70710677	-0.7071067	0	-0.7071067	-0.7071067	0	0	0	0	-0.0009972232	-0.016654646	0.005079377	-8.876668e-09	-0.08780649	-1.6273892e-09	1.9365518e-06	6.0969384e-08	145
0	0	-0.27483475	0	-0.7071068	0.7071068	0	0.7071067	-0.7071067	0	-0.70710677	-0.70710677	0	0	0	0	-0.0009972232	-0.016654646	0.005079377	-7.24362e-09	-0.083153166	-1.6201133e-09	1.9365518e-06	7.193878e-08	145
0	0	-0.2748347	0	-0.7071068	0.7071069	0	0.70710677	-0.7071067	0	-0.70710677	-0.70710677	0	0	0	0	-0.0009972232	-0.016654644	0.0050793765	-6.195882e-09	-0.07417371	-1.9952293e-09	1.9365518e-06	8.2908166e-08	145
0	0	-0.27483472	0	-0.7071068	0.7071068	0	0.7071067	-0.7071067	0	-0.70710677	-0.70710677	0	0	0	0	-0.0009972235	-0.016654644	0.005079377	-5.458585e-09	-0.06618856	-2.4398712e-09	1.9365518e-06	9.387755e-08	145
0	0	-0.27483472	0	-0.7071068	0.7071068	0	0.70710677	-0.70710665	0	-0.70710677	-0.7071067	0	0	0	0	-0.0009972232	-0.016654644	0.005079377	-4.7406905e-09	-0.059023432	-2.1553004e-09	1.9365518e-06	1.0484694e-07	145
0	0	-0.2748347	0	-0.7071069	0.7071068	0	0.7071067	-0.7071067	0	-0.7071067	-0.7071067	0	0	0	0	-0.0009972232	-0.016654644	0.0050793765	-3.906381e-09	-0.05253391	-5.659078e-10	1.9365518e-06	1.1581633e-07	145
0	0	-0.2748347	0	-0.7071068	0.7071069	0	0.7071067	-0.7071067	0	-0.7071067	-0.7071067	0	0	0	0	-0.0009972232	-0.016654644	0.005079377	-2.0760733e-09	-0.046599474	2.0582875e-09	1.9365518e-06	1.2678571e-07	145
0	0	-0.27483472	0	-0.7071068	0.7071068	0	0.70710677	-0.7071067	0	-0.7071067	-0.70710677	0	0	0	0	-0.0009972232	-0.016654644	0.005079377	-1.7818012e-09	-0.041118655	4.3364707e-09	1.9365518e-06	1.3775511e-07	145
0	0	-0.27483475	0	-0.7071068	0.7071068	0	0.70710677	-0.7071067	0	-0.7071067	-0.70710677	0	0	0	0	-0.0009972232	-0.016654644	0.005079377	-1.9305542e-09	-0.03600587	4.805366e-09	1.9365518e-06	1.487245e-07	145
0	0	-0.27483472	0	-0.7071069	0.7071069	0	0.7071067	-0.7071067	0	-0.70710677	-0.7071067	0	0	0	0	-0.0009972232	-0.016654644	0.005079377	-2.6904874e-09	-0.031188194	3.4714402e-09	1.9365518e-06	1.5969388e-07	145
0	0	-0.2748347	0	-0.7071068	0.7071069	0	0.70710677	-0.7071067	0	-0.7071067	-0.7071067	0	0	0	0	-0.0009972232	-0.016654646	0.005079377	-3.6994203e-09	-0.026603661	1.6750872e-09	1.9365518e-06	1.7066327e-07	145
0	0	-0.2748347	0	-0.7071069	0.7071068	0	0.7071067	-0.70710677	0	-0.7071067	-0.7071067	0	0	0	0	-0.0009972232	-0.016654648	0.0050793765	-3.822303e-09	-0.022199608	1.408302e-09	1.9365518e-06	1.8163266e-07	145
0	0	-0.2748347	0	-0.7071068	0.7071068	0	0.7071067	-0.70710677	0	-0.7071067	-0.70710677	0	0	0	0	-0.0009972232	-0.016654644	0.0050793765	-3.6298944e-09	-0.017931785	9.426407e-10	1.9365518e-06	1.9260204e-07	145
0	0	-0.27483472	0	-0.7071068	0.7071068	0	0.7071067	-0.7071067	0	-0.7071067	-0.7071067	0	0	0	0	-0.0009972232	-0.016654644	0.005079377	-3.3049017e-09	-0.013763605	8.4562796e-10	1.9365518e-06	2.0357143e-07	145
0	0	-0.27483472	0	-0.7071068	0.7071068	0	0.7071067	-0.7071067	0	-0.70710677	-0.70710677	0	0	0	0	-0.0009972232	-0.016654646	0.005079377	-3.4795247e-09	-0.009666199	1.0428872e-09	1.9365518e-06	2.1454082e-07	145
0	0	-0.27483472	0	-0.7071068	0.7071069	0	0.7071067	-0.7071067	0	-0.7071067	-0.7071067	0	0	0	0	-0.0009972232	-0.016654646	0.005079377	-2.9920355e-09	-0.0056182547	2.158534e-09	1.9365518e-06	2.255102e-07	145
0	0	-0.2748347	0	-0.7071069	0.7071068	0	0.7071067	-0.7071067	0	-0.7071067	-0.70710677	0	0	0	0	-0.0009972232	-0.016654644	0.005079377	-2.0696058e-09	-0.0016072073	3.059136e-09	1.9365518e-06	2.364796e-07	145
0	0	-0.27483472	0	-0.7071068	0.70710677	0	0.7071067	-0.7071067	0	-0.7071067	-0.7071067	0	0	0	0	-0.0009972232	-0.016654644	0.005079377	-2.2066362e-09	0.002370222	3.3453236e-09	1.9365518e-06	2.4744898e-07	145
0	0	-0.2748347	0	-0.7071068	0.7071068	0	0.7071067	-0.70710677	0	-0.7071067	-0.7071067	0	0	0	0	-0.0009972232	-0.016654644	0.005079377	-2.2927351e-09	0.006305957	3.0704541e-09	1.9365518e-06	2.5841837e-07	145
0	0	-0.2748347	0	-0.7071068	0.7071068	0	0.7071067	-0.70710677	0	-0.7071067	-0.7071067	0	0	0	0	-0.0009972232	-0.016654644	0.005079377	-3.4633558e-09	0.010178892	2.4075335e-09	1.9365518e-06	2.6938775e-07	145
0	0	-0.27483472	0	-0.7071069	0.7071068	0	0.7071067	-0.70710677	0	-0.7071067	-0.7071067	0	0	0	0	-0.0009972232	-0.016654646	0.005079377	-1.2935035e-09	0.013952113	2.0453526e-09	1.9365518e-06	2.8035714e-07	145
0	0	-0.2748347	0	-0.7071068	0.7071069	0	0.7071067	-0.70710677	0	-0.7071067	-0.70710677	0	0	0	0	-0.0009972232	-0.016654646	0.005079377	-1.2935036e-10	0.01757002	2.4592737e-09	1.9365518e-06	2.9132653e-07	145
0	0	-0.27483472	0	-0.7071068	0.7071068	0	0.7071067	-0.7071067	0	-0.7071067	-0.7071067	0	0	0	0	-0.0009972232	-0.016654648	0.005079377	1.6556846e-09	0.020955171	2.9055325e-09	1.9365518e-06	3.0229592e-07	145
0	0	-0.27483475	0	-0.7071068	0.7071068	0	0.7071067	-0.70710665	0	-0.70710677	-0.7071067	0	0	0	0	-0.0009972232	-0.016654646	0.005079377	4.5919377e-10	0.024004765	2.1536835e-09	1.9365518e-06	3.132653e-07	145