# t (s)	mx ()	my ()	mz ()	m.region32x ()	m.region32y ()	m.region32z ()	m.region33x ()	m.region33y ()	m.region33z ()	m.region34x ()	m.region34y ()	m.region34z ()	B_extx (T)	B_exty (T)	B_extz (T)	B_eff.region6x (T)	B_eff.region6y (T)	B_eff.region6z (T)	B_eff.region9x (T)	B_eff.region9y (T)	B_eff.region9z (T)	step_x (No unit)	step_y (No unit)
0	-0.9998814	-8.427065e-09	1.7537508e-11	-0.9998813	-8.427065e-09	1.7537508e-11	NaN	NaN	NaN	NaN	NaN	NaN	0	0	0	NaN	NaN	NaN	NaN	NaN	NaN	0	1e-07
0	-0.9998731	-3.4134473e-10	-9.7722164e-11	-0.99987316	-3.4134473e-10	-9.7722164e-11	NaN	NaN	NaN	NaN	NaN	NaN	0.039999973	0	0	NaN	NaN	NaN	NaN	NaN	NaN	0	1e-07
0	-0.9998635	-2.081606e-10	6.726081e-11	-0.9998635	-2.081606e-10	6.72608e-11	NaN	NaN	NaN	NaN	NaN	NaN	0.079999946	0	0	NaN	NaN	NaN	NaN	NaN	NaN	0	1e-07
0	-0.99985236	1.5910473e-10	1.2908422e-10	-0.9998524	1.5910473e-10	1.2908423e-10	NaN	NaN	NaN	NaN	NaN	NaN	0.11999989	0	0	NaN	NaN	NaN	NaN	NaN	NaN	0	1e-07
0	-0.99983937	9.174528e-11	1.177701e-11	-0.99983937	9.174528e-11	1.1777009e-11	NaN	NaN	NaN	NaN	NaN	NaN	0.15999989	0	0	NaN	NaN	NaN	NaN	NaN	NaN	0	1e-07
0	-0.9998237	3.6351366e-11	-9.555626e-12	-0.99982375	3.6351366e-11	-9.555626e-12	NaN	NaN	NaN	NaN	NaN	NaN	0.20000018	0	0	NaN	NaN	NaN	NaN	NaN	NaN	0	1e-07
0	-0.99980485	-1.5890578e-10	-2.8058826e-11	-0.99980485	-1.5890578e-10	-2.8058826e-11	NaN	NaN	NaN	NaN	NaN	NaN	0.23999979	0	0	NaN	NaN	NaN	NaN	NaN	NaN	0	1e-07
0	-0.9997813	4.7492676e-11	-5.095953e-11	-0.9997812	4.7492676e-11	-5.095953e-11	NaN	NaN	NaN	NaN	NaN	NaN	0.28000018	0	0	NaN	NaN	NaN	NaN	NaN	NaN	0	1e-07
0	-0.999751	1.9070967e-11	-5.3882773e-11	-0.999751	1.9070967e-11	-5.3882773e-11	NaN	NaN	NaN	NaN	NaN	NaN	0.31999978	0	0	NaN	NaN	NaN	NaN	NaN	NaN	0	1e-07
0	-0.9997108	-1.5415935e-10	-6.786225e-13	-0.9997108	-1.5415935e-10	-6.786225e-13	NaN	NaN	NaN	NaN	NaN	NaN	0.36000034	0	0	NaN	NaN	NaN	NaN	NaN	NaN	0	1e-07
0	-0.99965405	6.9405814e-11	1.7249e-11	-0.99965405	6.9405814e-11	1.7249e-11	NaN	NaN	NaN	NaN	NaN	NaN	0.40000036	0	0	NaN	NaN	NaN	NaN	NaN	NaN	0	1e-07
0	-0.9995667	-1.6248691e-10	1.4777936e-10	-0.9995667	-1.6248691e-10	1.4777937e-10	NaN	NaN	NaN	NaN	NaN	NaN	0.43999952	0	0	NaN	NaN	NaN	NaN	NaN	NaN	0	1e-07
0	-0.99940604	6.735945e-12	4.547386e-11	-0.999406	6.735945e-12	4.547386e-11	NaN	NaN	NaN	NaN	NaN	NaN	0.47999957	0	0	NaN	NaN	NaN	NaN	NaN	NaN	0	1e-07
0	0.9999372	7.6255446e-10	-4.1076444e-11	0.99993706	7.6255446e-10	-4.107644e-11	NaN	NaN	NaN	NaN	NaN	NaN	0.5200003	0	0	NaN	NaN	NaN	NaN	NaN	NaN	0	1e-07
0	0.99993944	-1.1922907e-10	-3.1329727e-11	0.99993944	-1.1922907e-10	-3.1329727e-11	NaN	NaN	NaN	NaN	NaN	NaN	0.56000036	0	0	NaN	NaN	NaN	NaN	NaN	NaN	0	1e-07
0	0.9999415	7.015899e-11	-5.9989435e-12	0.9999415	7.015899e-11	-5.9989435e-12	NaN	NaN	NaN	NaN	NaN	NaN	0.59999925	0	0	NaN	NaN	NaN	NaN	NaN	NaN	0	1e-07
0	0.99994355	4.023093e-11	-2.9947114e-11	0.9999436	4.023093e-11	-2.9947114e-11	NaN	NaN	NaN	NaN	NaN	NaN	0.63999957	0	0	NaN	NaN	NaN	NaN	NaN	NaN	0	1e-07
0	0.9999454	1.3243096e-10	6.337781e-12	0.99994546	1.3243096e-10	6.337781e-12	NaN	NaN	NaN	NaN	NaN	NaN	0.68000025	0	0	NaN	NaN	NaN	NaN	NaN	NaN	0	1e-07
0	0.9999463	1.1812062e-10	5.5340288e-11	0.99994636	1.1812062e-10	5.5340284e-11	NaN	NaN	NaN	NaN	NaN	NaN	0.69999945	0	0	NaN	NaN	NaN	NaN	NaN	NaN	0	1e-07
0	0.9999445	1.330136e-10	6.957839e-11	0.9999445	1.330136e-10	6.95784e-11	NaN	NaN	NaN	NaN	NaN	NaN	0.6600008	0	0	NaN	NaN	NaN	NaN	NaN	NaN	0	1e-07
0	0.9999426	1.23066e-10	2.7249028e-11	0.9999426	1.23066e-10	2.724903e-11	NaN	NaN	NaN	NaN	NaN	NaN	0.6200003	0	0	NaN	NaN	NaN	NaN	NaN	NaN	0	1e-07
0	0.9999415	8.790835e-11	-6.976036e-11	0.9999415	8.790835e-11	-6.976036e-11	NaN	NaN	NaN	NaN	NaN	NaN	0.59999925	0	0	NaN	NaN	NaN	NaN	NaN	NaN	0	1e-07
0	0.9999406	-2.0321522e-11	-4.3938304e-11	0.9999405	-2.0321522e-11	-4.39383e-11	NaN	NaN	NaN	NaN	NaN	NaN	0.58000094	0	0	NaN	NaN	NaN	NaN	NaN	NaN	0	1e-07
0	0.99993944	-1.6811441e-10	-2.5803098e-11	0.9999394	-1.6811441e-10	-2.58031e-11	NaN	NaN	NaN	NaN	NaN	NaN	0.56000036	0	0	NaN	NaN	NaN	NaN	NaN	NaN	0	1e-07
0	0.9999383	3.1050718e-11	3.3889485e-11	0.99993825	3.1050718e-11	3.388948e-11	NaN	NaN	NaN	NaN	NaN	NaN	0.5400007	0	0	NaN	NaN	NaN	NaN	NaN	NaN	0	1e-07
0	0.9999372	9.1844754e-11	-6.1853245e-11	0.9999372	9.1844754e-11	-6.1853245e-11	NaN	NaN	NaN	NaN	NaN	NaN	0.5200003	0	0	NaN	NaN	NaN	NaN	NaN	NaN	0	1e-07
0	0.99993587	1.2484236e-10	-5.470889e-11	0.99993587	1.2484236e-10	-5.470889e-11	NaN	NaN	NaN	NaN	NaN	NaN	0.5	0	0	NaN	NaN	NaN	NaN	NaN	NaN	0	1e-07
0	0.9999347	-2.177103e-11	-1.3608351e-11	0.9999346	-2.177103e-11	-1.36083506e-11	NaN	NaN	NaN	NaN	NaN	NaN	0.47999957	0	0	NaN	NaN	NaN	NaN	NaN	NaN	0	1e-07
0	0.9999334	-6.9391604e-11	-5.913504e-11	0.9999334	-6.9391604e-11	-5.913504e-11	NaN	NaN	NaN	NaN	NaN	NaN	0.45999935	0	0	NaN	NaN	NaN	NaN	NaN	NaN	0	1e-07
0	0.99993205	-1.12834186e-10	-2.9688196e-11	0.99993205	-1.12834186e-10	-2.9688193e-11	NaN	NaN	NaN	NaN	NaN	NaN	0.43999952	0	0	NaN	NaN	NaN	NaN	NaN	NaN	0	1e-07
0	0.9999306	-1.2103385e-10	-6.1007133e-12	0.9999306	-1.2103385e-10	-6.100713e-12	NaN	NaN	NaN	NaN	NaN	NaN	0.41999933	0	0	NaN	NaN	NaN	NaN	NaN	NaN	0	1e-07
0	0.9999292	-2.954863e-10	3.3950127e-11	0.99992913	-2.954863e-10	3.3950127e-11	NaN	NaN	NaN	NaN	NaN	NaN	0.40000036	0	0	NaN	NaN	NaN	NaN	NaN	NaN	0	1e-07
0	0.9999277	1.3005774e-10	1.5173262e-11	0.9999277	1.3005774e-10	1.5173262e-11	NaN	NaN	NaN	NaN	NaN	NaN	0.3800001	0	0	NaN	NaN	NaN	NaN	NaN	NaN	0	1e-07
0	0.9999262	8.2053475e-11	-2.3960355e-11	0.9999262	8.2053475e-11	-2.3960355e-11	NaN	NaN	NaN	NaN	NaN	NaN	0.36000034	0	0	NaN	NaN	NaN	NaN	NaN	NaN	0	1e-07
0	0.9999245	3.0979663e-12	2.7429867e-11	0.99992454	3.0979663e-12	2.742987e-11	NaN	NaN	NaN	NaN	NaN	NaN	0.34000012	0	0	NaN	NaN	NaN	NaN	NaN	NaN	0	1e-07
0	0.99992293	-6.596679e-11	-2.6758287e-12	0.9999229	-6.596679e-11	-2.6758287e-12	NaN	NaN	NaN	NaN	NaN	NaN	0.31999978	0	0	NaN	NaN	NaN	NaN	NaN	NaN	0	1e-07
0	0.9999211	-7.418066e-12	-3.743558e-11	0.9999211	-7.418066e-12	-3.743558e-11	NaN	NaN	NaN	NaN	NaN	NaN	0.29999962	0	0	NaN	NaN	NaN	NaN	NaN	NaN	0	1e-07
0	0.9999192	7.599965e-11	-4.9762824e-12	0.9999192	7.599965e-11	-4.9762824e-12	NaN	NaN	NaN	NaN	NaN	NaN	0.28000018	0	0	NaN	NaN	NaN	NaN	NaN	NaN	0	1e-07
0	0.9999173	-1.5262458e-11	-2.688604e-11	0.99991727	-1.5262458e-11	-2.688604e-11	NaN	NaN	NaN	NaN	NaN	NaN	0.26000014	0	0	NaN	NaN	NaN	NaN	NaN	NaN	0	1e-07
0	0.9999153	-1.9213076e-11	5.1067338e-11	0.9999153	-1.9213076e-11	5.1067338e-11	NaN	NaN	NaN	NaN	NaN	NaN	0.23999979	0	0	NaN	NaN	NaN	NaN	NaN	NaN	0	1e-07
0	0.9999132	4.7776894e-11	-2.0655453e-11	0.9999132	4.7776894e-11	-2.0655453e-11	NaN	NaN	NaN	NaN	NaN	NaN	0.21999976	0	0	NaN	NaN	NaN	NaN	NaN	NaN	0	1e-07
0	0.999911	3.1491254e-10	-2.5362766e-11	0.999911	3.1491254e-10	-2.5362766e-11	NaN	NaN	NaN	NaN	NaN	NaN	0.20000018	0	0	NaN	NaN	NaN	NaN	NaN	NaN	0	1e-07
0	0.9999087	5.1159077e-13	3.7939835e-11	0.9999087	5.1159077e-13	3.7939835e-11	NaN	NaN	NaN	NaN	NaN	NaN	0.18000017	0	0	NaN	NaN	NaN	NaN	NaN	NaN	0	1e-07
0	0.99990624	5.368861e-11	6.040732e-11	0.99990624	5.368861e-11	6.040732e-11	NaN	NaN	NaN	NaN	NaN	NaN	0.15999989	0	0	NaN	NaN	NaN	NaN	NaN	NaN	0	1e-07
0	0.9999038	9.77991e-11	3.4473865e-11	0.9999037	9.77991e-11	3.4473865e-11	NaN	NaN	NaN	NaN	NaN	NaN	0.14000009	0	0	NaN	NaN	NaN	NaN	NaN	NaN	0	1e-07
0	0.999901	1.5558044e-10	-2.2234853e-11	0.999901	1.5558044e-10	-2.2234851e-11	NaN	NaN	NaN	NaN	NaN	NaN	0.11999989	0	0	NaN	NaN	NaN	NaN	NaN	NaN	0	1e-07
0	0.9998982	-1.9895197e-11	-3.3242173e-11	0.9998983	-1.9895197e-11	-3.3242173e-11	NaN	NaN	NaN	NaN	NaN	NaN	0.10000009	0	0	NaN	NaN	NaN	NaN	NaN	NaN	0	1e-07
0	0.99989533	1.286935e-10	6.8836204e-12	0.9998952	1.286935e-10	6.8836204e-12	NaN	NaN	NaN	NaN	NaN	NaN	0.079999946	0	0	NaN	NaN	NaN	NaN	NaN	NaN	0	1e-07
0	0.9998921	3.5782932e-11	-7.097061e-11	0.9998921	3.5782932e-11	-7.097062e-11	NaN	NaN	NaN	NaN	NaN	NaN	0.059999947	0	0	NaN	NaN	NaN	NaN	NaN	NaN	0	1e-07
0	0.9998888	-1.997762e-10	-4.7426566e-11	0.9998888	-1.997762e-10	-4.7426563e-11	NaN	NaN	NaN	NaN	NaN	NaN	0.039999973	0	0	NaN	NaN	NaN	NaN	NaN	NaN	0	1e-07
0	0.99988514	-1.4023271e-10	-3.3644285e-11	0.99988514	-1.4023271e-10	-3.3644285e-11	NaN	NaN	NaN	NaN	NaN	NaN	0.019999987	0	0	NaN	NaN	NaN	NaN	NaN	NaN	0	1e-07
0	0.9998813	-1.2468604e-10	-5.4016056e-11	0.9998813	-1.2468604e-10	-5.4016056e-11	NaN	NaN	NaN	NaN	NaN	NaN	-2.8449465e-16	0	0	NaN	NaN	NaN	NaN	NaN	NaN	0	1e-07
0	0.9998774	2.8143177e-10	7.0113464e-11	0.99987745	2.8143177e-10	7.0113464e-11	NaN	NaN	NaN	NaN	NaN	NaN	-0.019999987	0	0	NaN	NaN	NaN	NaN	NaN	NaN	0	1e-07
0	0.99987316	5.303491e-11	9.4400994e-11	0.9998731	5.303491e-11	9.440099e-11	NaN	NaN	NaN	NaN	NaN	NaN	-0.039999973	0	0	NaN	NaN	NaN	NaN	NaN	NaN	0	1e-07
0	0.9998684	3.475975e-10	-5.3594837e-11	0.9998684	3.475975e-10	-5.3594837e-11	NaN	NaN	NaN	NaN	NaN	NaN	-0.059999947	0	0	NaN	NaN	NaN	NaN	NaN	NaN	0	1e-07
0	0.9998635	1.6370905e-10	-3.3074984e-12	0.9998635	1.6370905e-10	-3.3074984e-12	NaN	NaN	NaN	NaN	NaN	NaN	-0.079999946	0	0	NaN	NaN	NaN	NaN	NaN	NaN	0	1e-07
0	0.9998582	-3.1292302e-10	1.7880203e-11	0.9998582	-3.1292302e-10	1.7880204e-11	NaN	NaN	NaN	NaN	NaN	NaN	-0.10000009	0	0	NaN	NaN	NaN	NaN	NaN	NaN	0	1e-07
0	0.99985236	-1.2573764e-10	-4.66055e-11	0.99985236	-1.2573764e-10	-4.66055e-11	NaN	NaN	NaN	NaN	NaN	NaN	-0.11999989	0	0	NaN	NaN	NaN	NaN	NaN	NaN	0	1e-07
0	0.9998461	8.5549345e-12	2.4987313e-11	0.99984616	8.5549345e-12	2.4987314e-11	NaN	NaN	NaN	NaN	NaN	NaN	-0.14000009	0	0	NaN	NaN	NaN	NaN	NaN	NaN	0	1e-07
0	0.99983937	-1.5916157e-12	-4.1218483e-11	0.9998393	-1.5916157e-12	-4.121849e-11	NaN	NaN	NaN	NaN	NaN	NaN	-0.15999989	0	0	NaN	NaN	NaN	NaN	NaN	NaN	0	1e-07
0	0.9998319	-6.565415e-11	6.5189576e-11	0.9998319	-6.565415e-11	6.5189576e-11	NaN	NaN	NaN	NaN	NaN	NaN	-0.18000017	0	0	NaN	NaN	NaN	NaN	NaN	NaN	0	1e-07
0	0.9998237	1.4227908e-10	2.7920843e-12	0.9998238	1.4227908e-10	2.7920843e-12	NaN	NaN	NaN	NaN	NaN	NaN	-0.20000018	0	0	NaN	NaN	NaN	NaN	NaN	NaN	0	1e-07
0	0.9998148	3.5063863e-10	-5.1814955e-11	0.9998148	3.5063863e-10	-5.1814955e-11	NaN	NaN	NaN	NaN	NaN	NaN	-0.21999976	0	0	NaN	NaN	NaN	NaN	NaN	NaN	0	1e-07
0	0.99980485	-1.313083e-10	5.961788e-11	0.99980485	-1.313083e-10	5.961788e-11	NaN	NaN	NaN	NaN	NaN	NaN	-0.23999979	0	0	NaN	NaN	NaN	NaN	NaN	NaN	0	1e-07
0	0.9997937	-2.1213964e-10	6.8288417e-12	0.9997937	-2.1213964e-10	6.8288417e-12	NaN	NaN	NaN	NaN	NaN	NaN	-0.26000014	0	0	NaN	NaN	NaN	NaN	NaN	NaN	0	1e-07
0	0.99978125	-4.257572e-11	6.759015e-11	0.99978125	-4.257572e-11	6.759015e-11	NaN	NaN	NaN	NaN	NaN	NaN	-0.28000018	0	0	NaN	NaN	NaN	NaN	NaN	NaN	0	1e-07
0	0.99976707	-2.4328983e-10	-1.0077272e-11	0.99976707	-2.4328983e-10	-1.0077272e-11	NaN	NaN	NaN	NaN	NaN	NaN	-0.29999962	0	0	NaN	NaN	NaN	NaN	NaN	NaN	0	1e-07
0	0.999751	6.2442496e-11	2.8826212e-11	0.999751	6.2442496e-11	2.8826216e-11	NaN	NaN	NaN	NaN	NaN	NaN	-0.31999978	0	0	NaN	NaN	NaN	NaN	NaN	NaN	0	1e-07
0	0.99973243	-1.6316903e-10	4.412579e-11	0.9997325	-1.6316903e-10	4.4125786e-11	NaN	NaN	NaN	NaN	NaN	NaN	-0.34000012	0	0	NaN	NaN	NaN	NaN	NaN	NaN	0	1e-07
0	0.9997108	2.5667646e-10	-1.478222e-11	0.9997108	2.5667646e-10	-1.4782222e-11	NaN	NaN	NaN	NaN	NaN	NaN	-0.36000034	0	0	NaN	NaN	NaN	NaN	NaN	NaN	0	1e-07
0	0.99968505	2.842171e-14	3.985646e-12	0.99968505	2.842171e-14	3.985646e-12	NaN	NaN	NaN	NaN	NaN	NaN	-0.3800001	0	0	NaN	NaN	NaN	NaN	NaN	NaN	0	1e-07
0	0.99965405	-1.2252599e-10	2.644069e-12	0.99965405	-1.2252599e-10	2.644069e-12	NaN	NaN	NaN	NaN	NaN	NaN	-0.40000036	0	0	NaN	NaN	NaN	NaN	NaN	NaN	0	1e-07
0	0.99961567	-1.8928858e-10	1.05840635e-10	0.9996157	-1.8928858e-10	1.05840635e-10	NaN	NaN	NaN	NaN	NaN	NaN	-0.41999933	0	0	NaN	NaN	NaN	NaN	NaN	NaN	0	1e-07
0	0.9995667	-5.0818016e-11	-7.5359594e-11	0.9995667	-5.0818016e-11	-7.53596e-11	NaN	NaN	NaN	NaN	NaN	NaN	-0.43999952	0	0	NaN	NaN	NaN	NaN	NaN	NaN	0	1e-07
0	0.99950093	-1.7479351e-11	-5.5269324e-11	0.999501	-1.7479351e-11	-5.5269324e-11	NaN	NaN	NaN	NaN	NaN	NaN	-0.45999935	0	0	NaN	NaN	NaN	NaN	NaN	NaN	0	1e-07
0	0.999406	1.0504664e-10	-1.081114e-11	0.999406	1.0504664e-10	-1.08111384e-11	NaN	NaN	NaN	NaN	NaN	NaN	-0.47999957	0	0	NaN	NaN	NaN	NaN	NaN	NaN	0	1e-07
0	0.9992459	-1.8729907e-10	-6.350887e-11	0.9992459	-1.8729907e-10	-6.350887e-11	NaN	NaN	NaN	NaN	NaN	NaN	-0.5	0	0	NaN	NaN	NaN	NaN	NaN	NaN	0	1e-07
0	-0.9999371	-9.617054e-10	2.3890707e-11	-0.9999371	-9.617054e-10	2.3890705e-11	NaN	NaN	NaN	NaN	NaN	NaN	-0.5200003	0	0	NaN	NaN	NaN	NaN	NaN	NaN	0	1e-07
0	-0.9999383	-5.0846438e-11	-4.443711e-15	-0.99993825	-5.0846438e-11	-4.4436026e-15	NaN	NaN	NaN	NaN	NaN	NaN	-0.5400007	0	0	NaN	NaN	NaN	NaN	NaN	NaN	0	1e-07
0	-0.99993944	1.5504042e-10	2.770111e-11	-0.99993944	1.5504042e-10	2.770111e-11	NaN	NaN	NaN	NaN	NaN	NaN	-0.56000036	0	0	NaN	NaN	NaN	NaN	NaN	NaN	0	1e-07
0	-0.9999405	2.3021585e-11	2.182625e-11	-0.9999405	2.3021585e-11	2.182625e-11	NaN	NaN	NaN	NaN	NaN	NaN	-0.58000094	0	0	NaN	NaN	NaN	NaN	NaN	NaN	0	1e-07
0	-0.9999415	-1.6885338e-10	3.4366402e-11	-0.9999416	-1.6885338e-10	3.4366395e-11	NaN	NaN	NaN	NaN	NaN	NaN	-0.59999925	0	0	NaN	NaN	NaN	NaN	NaN	NaN	0	1e-07
0	-0.9999405	1.8189894e-11	2.2172576e-12	-0.9999405	1.8189894e-11	2.2172576e-12	NaN	NaN	NaN	NaN	NaN	NaN	-0.58000094	0	0	NaN	NaN	NaN	NaN	NaN	NaN	0	1e-07
0	-0.99993944	1.11541e-10	3.520711e-11	-0.99993944	1.11541e-10	3.520711e-11	NaN	NaN	NaN	NaN	NaN	NaN	-0.56000036	0	0	NaN	NaN	NaN	NaN	NaN	NaN	0	1e-07
0	-0.9999383	-1.1226575e-12	-8.059937e-12	-0.99993825	-1.1226575e-12	-8.059937e-12	NaN	NaN	NaN	NaN	NaN	NaN	-0.5400007	0	0	NaN	NaN	NaN	NaN	NaN	NaN	0	1e-07
0	-0.9999371	-1.2518342e-10	7.600252e-12	-0.9999372	-1.2518342e-10	7.600252e-12	NaN	NaN	NaN	NaN	NaN	NaN	-0.5200003	0	0	NaN	NaN	NaN	NaN	NaN	NaN	0	1e-07
0	-0.99993587	-1.5567991e-10	4.892416e-11	-0.99993587	-1.5567991e-10	4.892416e-11	NaN	NaN	NaN	NaN	NaN	NaN	-0.5	0	0	NaN	NaN	NaN	NaN	NaN	NaN	0	1e-07
0	-0.9999346	-1.8076207e-11	-1.7817739e-11	-0.9999347	-1.8076207e-11	-1.7817739e-11	NaN	NaN	NaN	NaN	NaN	NaN	-0.47999957	0	0	NaN	NaN	NaN	NaN	NaN	NaN	0	1e-07
0	-0.9999334	4.287415e-11	2.1183473e-11	-0.9999334	4.287415e-11	2.1183475e-11	NaN	NaN	NaN	NaN	NaN	NaN	-0.45999935	0	0	NaN	NaN	NaN	NaN	NaN	NaN	0	1e-07
0	-0.99993205	8.976997e-11	-1.3771876e-11	-0.99993205	8.976997e-11	-1.3771874e-11	NaN	NaN	NaN	NaN	NaN	NaN	-0.43999952	0	0	NaN	NaN	NaN	NaN	NaN	NaN	0	1e-07
0	-0.9999306	1.715108e-10	4.4884804e-11	-0.99993056	1.715108e-10	4.488481e-11	NaN	NaN	NaN	NaN	NaN	NaN	-0.41999933	0	0	NaN	NaN	NaN	NaN	NaN	NaN	0	1e-07
0	-0.9999292	1.7649882e-10	-2.4617877e-11	-0.9999292	1.7649882e-10	-2.4617877e-11	NaN	NaN	NaN	NaN	NaN	NaN	-0.40000036	0	0	NaN	NaN	NaN	NaN	NaN	NaN	0	1e-07
0	-0.99992776	-1.2860824e-10	-1.2622685e-11	-0.9999277	-1.2860824e-10	-1.2622684e-11	NaN	NaN	NaN	NaN	NaN	NaN	-0.3800001	0	0	NaN	NaN	NaN	NaN	NaN	NaN	0	1e-07
0	-0.9999262	-4.7094773e-11	2.0193108e-11	-0.9999262	-4.7094773e-11	2.0193108e-11	NaN	NaN	NaN	NaN	NaN	NaN	-0.36000034	0	0	NaN	NaN	NaN	NaN	NaN	NaN	0	1e-07
0	-0.9999245	5.9117156e-11	-2.275228e-11	-0.99992454	5.9117156e-11	-2.2752277e-11	NaN	NaN	NaN	NaN	NaN	NaN	-0.34000012	0	0	NaN	NaN	NaN	NaN	NaN	NaN	0	1e-07
0	-0.9999229	-6.4233063e-12	-8.576867e-12	-0.99992293	-6.4233063e-12	-8.576867e-12	NaN	NaN	NaN	NaN	NaN	NaN	-0.31999978	0	0	NaN	NaN	NaN	NaN	NaN	NaN	0	1e-07
0	-0.9999211	-1.1291945e-10	9.324702e-13	-0.9999211	-1.1291945e-10	9.324702e-13	NaN	NaN	NaN	NaN	NaN	NaN	-0.29999962	0	0	NaN	NaN	NaN	NaN	NaN	NaN	0	1e-07
0	-0.9999192	-1.0624035e-10	-2.0521803e-11	-0.9999193	-1.0624035e-10	-2.0521801e-11	NaN	NaN	NaN	NaN	NaN	NaN	-0.28000018	0	0	NaN	NaN	NaN	NaN	NaN	NaN	0	1e-07
0	-0.99991727	-7.8074436e-11	-1.1337577e-11	-0.9999173	-7.8074436e-11	-1.1337577e-11	NaN	NaN	NaN	NaN	NaN	NaN	-0.26000014	0	0	NaN	NaN	NaN	NaN	NaN	NaN	0	1e-07
0	-0.9999153	6.6080474e-11	-4.9598978e-11	-0.9999153	6.6080474e-11	-4.959897e-11	NaN	NaN	NaN	NaN	NaN	NaN	-0.23999979	0	0	NaN	NaN	NaN	NaN	NaN	NaN	0	1e-07
0	-0.9999132	-4.740741e-11	-1.9762733e-11	-0.9999133	-4.740741e-11	-1.9762733e-11	NaN	NaN	NaN	NaN	NaN	NaN	-0.21999976	0	0	NaN	NaN	NaN	NaN	NaN	NaN	0	1e-07
0	-0.999911	-3.6052938e-10	9.832734e-11	-0.999911	-3.6052938e-10	9.832734e-11	NaN	NaN	NaN	NaN	NaN	NaN	-0.20000018	0	0	NaN	NaN	NaN	NaN	NaN	NaN	0	1e-07
0	-0.9999087	1.196554e-11	-3.2705436e-11	-0.9999087	1.196554e-11	-3.2705436e-11	NaN	NaN	NaN	NaN	NaN	NaN	-0.18000017	0	0	NaN	NaN	NaN	NaN	NaN	NaN	0	1e-07
0	-0.99990624	-5.988454e-11	-1.7853335e-11	-0.99990624	-5.988454e-11	-1.7853335e-11	NaN	NaN	NaN	NaN	NaN	NaN	-0.15999989	0	0	NaN	NaN	NaN	NaN	NaN	NaN	0	1e-07
0	-0.9999037	-1.949445e-10	-6.91152e-11	-0.9999038	-1.949445e-10	-6.911521e-11	NaN	NaN	NaN	NaN	NaN	NaN	-0.14000009	0	0	NaN	NaN	NaN	NaN	NaN	NaN	0	1e-07
0	-0.99990106	-1.3142198e-10	8.125043e-12	-0.999901	-1.3142198e-10	8.125044e-12	NaN	NaN	NaN	NaN	NaN	NaN	-0.11999989	0	0	NaN	NaN	NaN	NaN	NaN	NaN	0	1e-07
0	-0.9998983	4.7180038e-11	7.1850997e-12	-0.9998982	4.7180038e-11	7.1850997e-12	NaN	NaN	NaN	NaN	NaN	NaN	-0.10000009	0	0	NaN	NaN	NaN	NaN	NaN	NaN	0	1e-07
0	-0.9998952	-9.6207486e-11	-2.4187173e-11	-0.9998952	-9.6207486e-11	-2.4187173e-11	NaN	NaN	NaN	NaN	NaN	NaN	-0.079999946	0	0	NaN	NaN	NaN	NaN	NaN	NaN	0	1e-07
0	-0.9998921	-2.7569058e-11	1.9844605e-11	-0.9998921	-2.7569058e-11	1.9844605e-11	NaN	NaN	NaN	NaN	NaN	NaN	-0.059999947	0	0	NaN	NaN	NaN	NaN	NaN	NaN	0	1e-07
0	-0.9998888	1.988667e-10	4.418011e-11	-0.9998887	1.988667e-10	4.418011e-11	NaN	NaN	NaN	NaN	NaN	NaN	-0.039999973	0	0	NaN	NaN	NaN	NaN	NaN	NaN	0	1e-07
0	-0.99988526	-2.9871217e-11	-1.0560041e-11	-0.9998852	-2.9871217e-11	-1.0560041e-11	NaN	NaN	NaN	NaN	NaN	NaN	-0.019999987	0	0	NaN	NaN	NaN	NaN	NaN	NaN	0	1e-07
0	-0.9998813	1.4443913e-10	4.426956e-11	-0.9998813	1.4443913e-10	4.4269557e-11	NaN	NaN	NaN	NaN	NaN	NaN	2.8449465e-16	0	0	NaN	NaN	NaN	NaN	NaN	NaN	0	1e-07
0	-0.9998774	-1.6754598e-10	-4.195048e-11	-0.9998774	-1.6754598e-10	-4.195048e-11	NaN	NaN	NaN	NaN	NaN	NaN	0.019999987	0	0	NaN	NaN	NaN	NaN	NaN	NaN	0	1e-07
0	-0.9998731	-4.1839598e-10	-1.2432489e-11	-0.99987316	-4.1839598e-10	-1.2432489e-11	NaN	NaN	NaN	NaN	NaN	NaN	0.039999973	0	0	NaN	NaN	NaN	NaN	NaN	NaN	0	1e-07
0	-0.99986845	-1.2047963e-10	-2.1726372e-11	-0.9998684	-1.2047963e-10	-2.172637e-11	NaN	NaN	NaN	NaN	NaN	NaN	0.059999947	0	0	NaN	NaN	NaN	NaN	NaN	NaN	0	1e-07
0	-0.9998635	-2.4934366e-10	1.1327439e-10	-0.9998635	-2.4934366e-10	1.1327439e-10	NaN	NaN	NaN	NaN	NaN	NaN	0.079999946	0	0	NaN	NaN	NaN	NaN	NaN	NaN	0	1e-07
0	-0.9998582	2.0443736e-10	-1.3408964e-11	-0.9998581	2.0443736e-10	-1.3408964e-11	NaN	NaN	NaN	NaN	NaN	NaN	0.10000009	0	0	NaN	NaN	NaN	NaN	NaN	NaN	0	1e-07
0	-0.9998524	1.749072e-10	4.6143367e-11	-0.99985236	1.749072e-10	4.6143363e-11	NaN	NaN	NaN	NaN	NaN	NaN	0.11999989	0	0	NaN	NaN	NaN	NaN	NaN	NaN	0	1e-07
0	-0.99984616	-3.8824055e-11	4.2532332e-11	-0.9998461	-3.8824055e-11	4.2532332e-11	NaN	NaN	NaN	NaN	NaN	NaN	0.14000009	0	0	NaN	NaN	NaN	NaN	NaN	NaN	0	1e-07
0	-0.99983937	2.8208547e-10	-1.05031565e-11	-0.99983937	2.8208547e-10	-1.05031565e-11	NaN	NaN	NaN	NaN	NaN	NaN	0.15999989	0	0	NaN	NaN	NaN	NaN	NaN	NaN	0	1e-07
0	-0.9998319	6.536993e-11	-4.087479e-11	-0.9998319	6.536993e-11	-4.0874786e-11	NaN	NaN	NaN	NaN	NaN	NaN	0.18000017	0	0	NaN	NaN	NaN	NaN	NaN	NaN	0	1e-07
0	-0.99982375	-5.9912963e-11	-1.6248398e-11	-0.9998237	-5.9912963e-11	-1.6248398e-11	NaN	NaN	NaN	NaN	NaN	NaN	0.20000018	0	0	NaN	NaN	NaN	NaN	NaN	NaN	0	1e-07
0	-0.99981487	-1.11668896e-10	3.133425e-11	-0.9998148	-1.11668896e-10	3.1334255e-11	NaN	NaN	NaN	NaN	NaN	NaN	0.21999976	0	0	NaN	NaN	NaN	NaN	NaN	NaN	0	1e-07
0	-0.99980485	4.0273562e-11	-7.689414e-11	-0.99980485	4.0273562e-11	-7.6894144e-11	NaN	NaN	NaN	NaN	NaN	NaN	0.23999979	0	0	NaN	NaN	NaN	NaN	NaN	NaN	0	1e-07
0	-0.99979365	1.4409807e-10	-5.6117246e-11	-0.9997937	1.4409807e-10	-5.611725e-11	NaN	NaN	NaN	NaN	NaN	NaN	0.26000014	0	0	NaN	NaN	NaN	NaN	NaN	NaN	0	1e-07
0	-0.99978125	1.9491608e-10	8.498491e-11	-0.99978125	1.9491608e-10	8.498491e-11	NaN	NaN	NaN	NaN	NaN	NaN	0.28000018	0	0	NaN	NaN	NaN	NaN	NaN	NaN	0	1e-07
0	-0.99976707	2.0037305e-11	-1.6920519e-11	-0.99976707	2.0037305e-11	-1.692052e-11	NaN	NaN	NaN	NaN	NaN	NaN	0.29999962	0	0	NaN	NaN	NaN	NaN	NaN	NaN	0	1e-07
0	-0.999751	-5.5564442e-11	-2.7762154e-11	-0.999751	-5.5564442e-11	-2.7762154e-11	NaN	NaN	NaN	NaN	NaN	NaN	0.31999978	0	0	NaN	NaN	NaN	NaN	NaN	NaN	0	1e-07
0	-0.99973243	1.3216095e-11	-6.666268e-11	-0.9997325	1.3216095e-11	-6.666268e-11	NaN	NaN	NaN	NaN	NaN	NaN	0.34000012	0	0	NaN	NaN	NaN	NaN	NaN	NaN	0	1e-07
0	-0.9997108	-8.6686214e-11	1.1394364e-12	-0.9997108	-8.6686214e-11	1.1394364e-12	NaN	NaN	NaN	NaN	NaN	NaN	0.36000034	0	0	NaN	NaN	NaN	NaN	NaN	NaN	0	1e-07
0	-0.999685	2.2785684e-10	4.45906e-11	-0.99968505	2.2785684e-10	4.45906e-11	NaN	NaN	NaN	NaN	NaN	NaN	0.3800001	0	0	NaN	NaN	NaN	NaN	NaN	NaN	0	1e-07
0	-0.99965405	1.7004709e-10	1.6097765e-11	-0.99965405	1.7004709e-10	1.6097765e-11	NaN	NaN	NaN	NaN	NaN	NaN	0.40000036	0	0	NaN	NaN	NaN	NaN	NaN	NaN	0	1e-07
0	-0.9996157	1.6095214e-10	-9.293395e-11	-0.9996157	1.6095214e-10	-9.293395e-11	NaN	NaN	NaN	NaN	NaN	NaN	0.41999933	0	0	NaN	NaN	NaN	NaN	NaN	NaN	0	1e-07
0	-0.9995667	-3.805667e-11	1.2843916e-10	-0.9995667	-3.805667e-11	1.2843918e-10	NaN	NaN	NaN	NaN	NaN	NaN	0.43999952	0	0	NaN	NaN	NaN	NaN	NaN	NaN	0	1e-07
0	-0.9995009	1.11981535e-11	5.771482e-11	-0.999501	1.11981535e-11	5.7714816e-11	NaN	NaN	NaN	NaN	NaN	NaN	0.45999935	0	0	NaN	NaN	NaN	NaN	NaN	NaN	0	1e-07
0	-0.999406	-1.8022206e-10	4.785848e-11	-0.9994061	-1.8022206e-10	4.785848e-11	NaN	NaN	NaN	NaN	NaN	NaN	0.47999957	0	0	NaN	NaN	NaN	NaN	NaN	NaN	0	1e-07
0	-0.9992459	1.9372237e-10	1.03700576e-10	-0.9992459	1.9372237e-10	1.03700576e-10	NaN	NaN	NaN	NaN	NaN	NaN	0.5	0	0	NaN	NaN	NaN	NaN	NaN	NaN	0	1e-07
0	0.9999372	7.2418516e-11	-6.280606e-11	0.9999372	7.2418516e-11	-6.2806066e-11	NaN	NaN	NaN	NaN	NaN	NaN	0.5200003	0	0	NaN	NaN	NaN	NaN	NaN	NaN	0	1e-07
0	0.99993825	-4.7023718e-11	-1.9829116e-11	0.99993825	-4.7023718e-11	-1.9829116e-11	NaN	NaN	NaN	NaN	NaN	NaN	0.5400007	0	0	NaN	NaN	NaN	NaN	NaN	NaN	0	1e-07
0	0.99993944	-1.0537349e-10	-3.351551e-11	0.99993944	-1.0537349e-10	-3.3515506e-11	NaN	NaN	NaN	NaN	NaN	NaN	0.56000036	0	0	NaN	NaN	NaN	NaN	NaN	NaN	0	1e-07
0	0.9999405	1.1269208e-11	8.948946e-12	0.9999406	1.1269208e-11	8.948946e-12	NaN	NaN	NaN	NaN	NaN	NaN	0.58000094	0	0	NaN	NaN	NaN	NaN	NaN	NaN	0	1e-07
0	0.9999406	1.1269208e-11	8.948946e-12	0.99993306	4.4555e-11	5.6813686e-12	NaN	NaN	NaN	NaN	NaN	NaN	0.58000094	0	0	1.2705605	-7.4505807e-10	5.7742e-09	NaN	NaN	NaN	0	1e-07
0	0.9999406	1.1269208e-11	8.948946e-12	0.9999331	4.4555e-11	5.6813686e-12	NaN	NaN	NaN	NaN	NaN	NaN	0.58000094	0	0	1.0459298	-9.313226e-10	-1.7229468e-09	NaN	NaN	NaN	4.2857144e-09	1e-07
0	0.9999405	1.1269208e-11	8.948946e-12	0.9999325	1.812948e-09	-4.9784447e-11	NaN	NaN	NaN	NaN	NaN	NaN	0.58000094	0	0	1.0455815	0.00017779041	-1.0994263e-07	NaN	NaN	NaN	4.2857144e-09	5e-08
0	0.9999405	1.1269208e-11	8.948946e-12	0.99993247	1.9122512e-09	-5.024162e-11	NaN	NaN	NaN	NaN	NaN	NaN	0.58000094	0	0	1.04554	0.00018806756	-1.16974114e-07	0.66540205	4.9121763e-06	-0.0028503733	4.2857144e-09	5.233533e-08
