# t (s)	mx ()	my ()	mz ()	m.region21x ()	m.region21y ()	m.region21z ()	m.region22x ()	m.region22y ()	m.region22z ()	m.region23x ()	m.region23y ()	m.region23z ()	B_extx (T)	B_exty (T)	B_extz (T)	B_eff.region6x (T)	B_eff.region6y (T)	B_eff.region6z (T)	B_eff.region9x (T)	B_eff.region9y (T)	B_eff.region9z (T)	step_x (No unit)	step_y (No unit)
0	0	-0.31019875	0	0	1	0	0	-1	0	0	-1	0	0	0	0	0.06122741	-0.00997857	-1.4508799e-09	NaN	NaN	NaN	0	1e-07
0	0	-0.31019875	0	0	1	0	0	-1	0	0	-1	0	0	0	0	0.06442894	-0.011049743	6.596868e-10	NaN	NaN	NaN	6.993007e-09	1e-07
0	0	-0.31019875	0	0	1	0	0	-1	0	0	-1	0	0	0	0	0.06784362	-0.012251883	-1.315062e-09	NaN	NaN	NaN	1.3986014e-08	1e-07
0	0	-0.31019875	0	0	1	0	0	-1	0	0	-1	0	0	0	0	0.071485095	-0.013603826	2.2851897e-10	NaN	NaN	NaN	2.0979021e-08	1e-07
0	0	-0.31019875	0	0	1	0	0	-1	0	0	-1	0	0	0	0	0.07536688	-0.015127323	-1.636282e-09	NaN	NaN	NaN	2.7972028e-08	1e-07
0	0	-0.31019875	0	0	1	0	0	-1	0	0	-1	0	0	0	0	0.07950168	-0.016847445	4.5272625e-10	NaN	NaN	NaN	3.4965034e-08	1e-07
0	0	-0.31019875	0	0	1	0	0	-1	0	0	-1	0	0	0	0	0.08390086	-0.018793004	-1.3668021e-09	NaN	NaN	NaN	4.1958042e-08	1e-07
0	0	-0.31019875	0	0	1	0	0	-1	0	0	-1	0	0	0	0	0.08857321	-0.020996995	7.8041384e-10	NaN	NaN	NaN	4.8951048e-08	1e-07
0	0	-0.31019875	0	0	1	0	0	-1	0	0	-1	0	0	0	0	0.09352371	-0.023496883	-1.0779196e-09	NaN	NaN	NaN	5.5944056e-08	1e-07
0	0	-0.31019875	0	0	1	0	0	-1	0	0	-1	0	0	0	0	0.098751515	-0.026334837	6.3812844e-10	NaN	NaN	NaN	6.293706e-08	1e-07
0	0	-0.31019875	0	0	1	0	0	-1	0	0	-1	0	0	0	0	0.10424744	-0.02955757	-8.192189e-10	NaN	NaN	NaN	6.993007e-08	1e-07
0	0	-0.31019875	0	0	1	0	0	-1	0	0	-1	0	0	0	0	0.1099905	-0.033215694	1.2417635e-09	NaN	NaN	NaN	7.692308e-08	1e-07
0	0	-0.31019875	0	0	1	0	0	-1	0	0	-1	0	0	0	0	0.11594371	-0.037362106	-7.24362e-10	NaN	NaN	NaN	8.3916085e-08	1e-07
0	0	-0.31019875	0	0	1	0	0	-1	0	0	-1	0	0	0	0	0.12204839	-0.042048905	6.8986855e-10	NaN	NaN	NaN	9.090909e-08	1e-07
0	0	-0.31019875	0	0	1	0	0	-1	0	0	-1	0	0	0	0	0.12821819	-0.047321945	-7.1573864e-10	NaN	NaN	NaN	9.7902095e-08	1e-07
0	0	-0.31019875	0	0	1	0	0	-1	0	0	-1	0	0	0	0	0.13433184	-0.05321205	4.7428467e-10	NaN	NaN	NaN	1.0489511e-07	1e-07
0	0	-0.31019875	0	0	1	0	0	-1	0	0	-1	0	0	0	0	0.14022776	-0.05972142	1.3797372e-10	NaN	NaN	NaN	1.1188811e-07	1e-07
0	0	-0.31019875	0	0	1	0	0	-1	0	0	-1	0	0	0	0	0.14570189	-0.066804595	2.41454e-10	NaN	NaN	NaN	1.1888112e-07	1e-07
0	0	-0.31019875	0	0	1	0	0	-1	0	0	-1	0	0	0	0	0.15051457	-0.07434506	2.41454e-10	NaN	NaN	NaN	1.2587412e-07	1e-07
0	0	-0.31019875	0	0	1	0	0	-1	0	0	-1	0	0	0	0	0.15441102	-0.08213273	1.2935035e-09	NaN	NaN	NaN	1.3286713e-07	1e-07
0	0	-0.31019875	0	0	1	0	0	-1	0	0	-1	0	0	0	0	0.15715902	-0.089855894	-3.62181e-10	NaN	NaN	NaN	1.3986013e-07	1e-07
0	0	-0.31019875	0	0	1	0	0	-1	0	0	-1	0	0	0	0	0.15858918	-0.09711529	3.8805106e-10	NaN	NaN	NaN	1.4685315e-07	1e-07
0	0	-0.31019875	0	0	1	0	0	-1	0	0	-1	0	0	0	0	0.15862821	-0.10347866	5.001547e-10	NaN	NaN	NaN	1.5384616e-07	1e-07
0	0	-0.31019875	0	0	1	0	0	-1	0	0	-1	0	0	0	0	0.15729244	-0.10854745	3.794277e-10	NaN	NaN	NaN	1.6083916e-07	1e-07
0	0	-0.31019875	0	0	1	0	0	-1	0	0	-1	0	0	0	0	0.15464443	-0.1120171	1.3624905e-09	NaN	NaN	NaN	1.6783217e-07	1e-07
0	0	-0.31019875	0	0	1	0	0	-1	0	0	-1	0	0	0	0	0.15074323	-0.11370296	7.071153e-10	NaN	NaN	NaN	1.7482517e-07	1e-07
0	0	-0.31019875	0	0	1	0	0	-1	0	0	-1	0	0	0	0	0.14560324	-0.113550566	7.933489e-10	NaN	NaN	NaN	1.8181818e-07	1e-07
0	0	-0.31019875	0	0	1	0	0	-1	0	0	-1	0	0	0	0	0.13917959	-0.11163653	1.931632e-09	NaN	NaN	NaN	1.8881119e-07	1e-07
0	0	-0.31019875	0	0	1	0	0	-1	0	0	-1	0	0	0	0	0.13138308	-0.10816812	2.1213458e-09	NaN	NaN	NaN	1.9580419e-07	1e-07
0	0	-0.31019875	0	0	1	0	0	-1	0	0	-1	0	0	0	0	0.12212105	-0.103473514	1.7246714e-09	NaN	NaN	NaN	2.027972e-07	1e-07
0	0	-0.31019875	0	0	1	0	0	-1	0	0	-1	0	0	0	0	0.11134755	-0.09797634	2.242073e-09	NaN	NaN	NaN	2.0979022e-07	1e-07
0	0	-0.31019875	0	0	1	0	0	-1	0	0	-1	0	0	0	0	0.09910717	-0.09213592	4.0702246e-09	NaN	NaN	NaN	2.1678322e-07	1e-07
0	0	-0.31019875	0	0	1	0	0	-1	0	0	-1	0	0	0	0	0.08554166	-0.08638113	5.5879354e-09	NaN	NaN	NaN	2.2377623e-07	1e-07
0	0	-0.31019875	0	0	1	0	0	-1	0	0	-1	0	0	0	0	0.07085765	-0.08105626	3.5183296e-09	NaN	NaN	NaN	2.3076923e-07	1e-07
0	0	-0.31019875	0	0	1	0	0	-1	0	0	-1	0	0	0	0	0.055287074	-0.07640757	5.6224287e-09	NaN	NaN	NaN	2.3776224e-07	1e-07
0	0	-0.31019875	0	0	1	0	0	-1	0	0	-1	0	0	0	0	0.03905101	-0.07259164	4.656613e-09	NaN	NaN	NaN	2.4475526e-07	1e-07
0	0	-0.31019875	0	0	1	0	0	-1	0	0	-1	0	0	0	0	0.022340922	-0.06969817	4.0012376e-09	NaN	NaN	NaN	2.5174825e-07	1e-07
0	0	-0.31019875	0	0	1	0	0	-1	0	0	-1	0	0	0	0	0.0053144363	-0.067773275	3.62181e-09	NaN	NaN	NaN	2.5874127e-07	1e-07
0	0	-0.31019875	0	0	1	0	0	-1	0	0	-1	0	0	0	0	-0.0118994545	-0.066837914	5.9328698e-09	NaN	NaN	NaN	2.6573426e-07	1e-07
0	0	-0.31019875	0	0	1	0	0	-1	0	0	-1	0	0	0	0	-0.029190354	-0.06689984	2.8629545e-09	NaN	NaN	NaN	2.7272728e-07	1e-07
0	0	-0.31019875	0	0	1	0	0	-1	0	0	-1	0	0	0	0	-0.04645428	-0.06795939	4.3116786e-09	NaN	NaN	NaN	2.7972027e-07	1e-07
0	0	-0.31019875	0	0	1	0	0	-1	0	0	-1	0	0	0	0	-0.063580975	-0.07000942	2.4490334e-09	NaN	NaN	NaN	2.867133e-07	1e-07
0	0	-0.31019875	0	0	1	0	0	-1	0	0	-1	0	0	0	0	-0.080441825	-0.07302966	6.4157777e-09	NaN	NaN	NaN	2.937063e-07	1e-07
0	0	-0.31019875	0	0	1	0	0	-1	0	0	-1	0	0	0	0	-0.096879765	-0.0769746	4.93256e-09	NaN	NaN	NaN	3.006993e-07	1e-07
0	0	-0.31019875	0	0	1	0	0	-1	0	0	-1	0	0	0	0	-0.11270403	-0.08175533	5.243001e-09	NaN	NaN	NaN	3.0769232e-07	1e-07
0	0	-0.31019875	0	0	1	0	0	-1	0	0	-1	0	0	0	0	-0.12769446	-0.087215886	4.898067e-09	NaN	NaN	NaN	3.146853e-07	1e-07
0	0	-0.31019875	0	0	1	0	0	-1	0	0	-1	0	0	0	0	-0.14162026	-0.09311083	5.4154685e-09	NaN	NaN	NaN	3.2167833e-07	1e-07
0	0	-0.31019875	0	0	1	0	0	-1	0	0	-1	0	0	0	0	-0.15427607	-0.09909663	5.8983765e-09	NaN	NaN	NaN	3.2867132e-07	1e-07
0	0	-0.31019875	0	0	1	0	0	-1	0	0	-1	0	0	0	0	-0.16552176	-0.10474532	3.4838363e-09	NaN	NaN	NaN	3.3566434e-07	1e-07
0	0	-0.31019875	0	0	1	0	0	-1	0	0	-1	0	0	0	0	-0.17531437	-0.10959846	2.41454e-09	NaN	NaN	NaN	3.4265733e-07	1e-07
0	0	-0.31019875	0	0	1	0	0	-1	0	0	-1	0	0	0	0	-0.18370198	-0.11323342	1.086543e-09	NaN	NaN	NaN	3.4965035e-07	1e-07
0	0	-0.31019875	0	0	1	0	0	-1	0	0	-1	0	0	0	0	-0.19077934	-0.115323104	1.0692963e-09	NaN	NaN	NaN	3.5664337e-07	1e-07
0	0	-0.31019875	0	0	1	0	0	-1	0	0	-1	0	0	0	0	-0.19663832	-0.11566144	1.8626451e-09	NaN	NaN	NaN	3.6363636e-07	1e-07
0	0	-0.31019875	0	0	1	0	0	-1	0	0	-1	0	0	0	0	-0.20132644	-0.11417309	1.5522043e-10	NaN	NaN	NaN	3.7062938e-07	1e-07
0	0	-0.31019875	0	0	1	0	0	-1	0	0	-1	0	0	0	0	-0.20483246	-0.11091404	4.1392115e-10	NaN	NaN	NaN	3.7762237e-07	1e-07
0	0	-0.31019875	0	0	1	0	0	-1	0	0	-1	0	0	0	0	-0.20710075	-0.10607039	6.03635e-10	NaN	NaN	NaN	3.846154e-07	1e-07
0	0	-0.31019875	0	0	1	0	0	-1	0	0	-1	0	0	0	0	-0.20807256	-0.09994859	-1.0348029e-10	NaN	NaN	NaN	3.9160838e-07	1e-07
0	0	-0.31019875	0	0	1	0	0	-1	0	0	-1	0	0	0	0	-0.20773551	-0.092949115	4.225445e-10	NaN	NaN	NaN	3.986014e-07	1e-07
0	0	-0.31019875	0	0	1	0	0	-1	0	0	-1	0	0	0	0	-0.20616767	-0.08550645	-3.2768757e-10	NaN	NaN	NaN	4.055944e-07	1e-07
0	0	-0.31019875	0	0	1	0	0	-1	0	0	-1	0	0	0	0	-0.20354316	-0.07802234	2.41454e-10	NaN	NaN	NaN	4.125874e-07	1e-07
0	0	-0.31019875	0	0	1	0	0	-1	0	0	-1	0	0	0	0	-0.20009983	-0.0708113	-1.2245167e-09	NaN	NaN	NaN	4.1958043e-07	1e-07
0	0	-0.31019875	0	0	1	0	0	-1	0	0	-1	0	0	0	0	-0.19609824	-0.06408658	2.2420729e-10	NaN	NaN	NaN	4.2657342e-07	1e-07
0	0	-0.31019875	0	0	1	0	0	-1	0	0	-1	0	0	0	0	-0.19178465	-0.0579683	-2.9319414e-10	NaN	NaN	NaN	4.3356644e-07	1e-07
0	0	-0.31019875	0	0	1	0	0	-1	0	0	-1	0	0	0	0	-0.18736996	-0.052505974	3.837394e-10	NaN	NaN	NaN	4.4055943e-07	1e-07
0	0	-0.31019875	0	0	1	0	0	-1	0	0	-1	0	0	0	0	-0.18302363	-0.047702055	-8.192189e-11	NaN	NaN	NaN	4.4755245e-07	1e-07
0	0	-0.31019875	0	0	1	0	0	-1	0	0	-1	0	0	0	0	-0.17887497	-0.04353103	2.1127225e-10	NaN	NaN	NaN	4.5454544e-07	1e-07
0	0	-0.31019875	0	0	1	0	0	-1	0	0	-1	0	0	0	0	-0.17501952	-0.039953105	2.1558392e-11	NaN	NaN	NaN	4.6153846e-07	1e-07
0	0	-0.31019875	0	0	1	0	0	-1	0	0	-1	0	0	0	0	-0.17152542	-0.036923118	4.850638e-10	NaN	NaN	NaN	4.6853148e-07	1e-07
0	0	-0.31019875	0	0	1	0	0	-1	0	0	-1	0	0	0	0	-0.16844021	-0.034396175	3.557135e-10	NaN	NaN	NaN	4.7552447e-07	1e-07
0	0	-0.31019875	0	0	1	0	0	-1	0	0	-1	0	0	0	0	-0.16579586	-0.032330852	3.3631092e-10	NaN	NaN	NaN	4.8251746e-07	1e-07
0	0	-0.31019875	0	0	1	0	0	-1	0	0	-1	0	0	0	0	-0.16361345	-0.030691015	7.6424506e-10	NaN	NaN	NaN	4.895105e-07	1e-07
0	0	-0.31019875	0	0	1	0	0	-1	0	0	-1	0	0	0	0	NaN	NaN	NaN	NaN	NaN	NaN	4.965035e-07	1e-07
0	0	-0.31019875	0	0	1	0	0	-1	0	0	-1	0	0	0	0	-0.1619063	-0.02944672	6.4675176e-10	NaN	NaN	NaN	5.034965e-07	1e-07
0	0	-0.31019875	0	0	1	0	0	-1	0	0	-1	0	0	0	0	-0.1606825	-0.028574603	7.31099e-10	NaN	NaN	NaN	5.104895e-07	1e-07
0	0	-0.31019875	0	0	1	0	0	-1	0	0	-1	0	0	0	0	-0.15994665	-0.028057983	3.9883027e-10	NaN	NaN	NaN	5.1748253e-07	1e-07
0	0	-0.31019875	0	0	1	0	0	-1	0	0	-1	0	0	0	0	-0.15970117	-0.027886892	5.928558e-10	NaN	NaN	NaN	5.244755e-07	1e-07
0	0	-0.31019875	0	0	1	0	0	-1	0	0	-1	0	0	0	0	-0.15994665	-0.028057985	3.2229797e-10	NaN	NaN	NaN	5.314685e-07	1e-07
0	0	-0.31019875	0	0	1	0	0	-1	0	0	-1	0	0	0	0	-0.16068248	-0.028574608	4.427555e-10	NaN	NaN	NaN	5.3846156e-07	1e-07
0	0	-0.31019875	0	0	1	0	0	-1	0	0	-1	0	0	0	0	-0.1619063	-0.02944672	2.2312936e-10	NaN	NaN	NaN	5.4545455e-07	1e-07
0	0	-0.31019875	0	0	1	0	0	-1	0	0	-1	0	0	0	0	-0.16361345	-0.030691015	2.640903e-10	NaN	NaN	NaN	5.5244755e-07	1e-07
0	0	-0.31019875	0	0	1	0	0	-1	0	0	-1	0	0	0	0	-0.16579586	-0.03233085	2.3714232e-11	NaN	NaN	NaN	5.5944054e-07	1e-07
0	0	-0.31019875	0	0	1	0	0	-1	0	0	-1	0	0	0	0	-0.16844021	-0.03439618	1.315062e-10	NaN	NaN	NaN	5.664336e-07	1e-07
0	0	-0.31019875	0	0	1	0	0	-1	0	0	-1	0	0	0	0	-0.17152542	-0.03692312	-5.648299e-10	NaN	NaN	NaN	5.734266e-07	1e-07
0	0	-0.31019875	0	0	1	0	0	-1	0	0	-1	0	0	0	0	-0.17501952	-0.03995311	-2.1558393e-10	NaN	NaN	NaN	5.8041957e-07	1e-07
0	0	-0.31019875	0	0	1	0	0	-1	0	0	-1	0	0	0	0	-0.17887497	-0.043531034	-5.475832e-10	NaN	NaN	NaN	5.874126e-07	1e-07
0	0	-0.31019875	0	0	1	0	0	-1	0	0	-1	0	0	0	0	-0.18302363	-0.047702067	-5.1308974e-10	NaN	NaN	NaN	5.944056e-07	1e-07
0	0	-0.31019875	0	0	1	0	0	-1	0	0	-1	0	0	0	0	-0.18736999	-0.052505977	-9.356342e-10	NaN	NaN	NaN	6.013986e-07	1e-07
0	0	-0.31019875	0	0	1	0	0	-1	0	0	-1	0	0	0	0	-0.1917846	-0.057968315	-1.5090875e-09	NaN	NaN	NaN	6.083916e-07	1e-07
0	0	-0.31019875	0	0	1	0	0	-1	0	0	-1	0	0	0	0	-0.19609825	-0.064086586	-1.690178e-09	NaN	NaN	NaN	6.1538464e-07	1e-07
0	0	-0.31019875	0	0	1	0	0	-1	0	0	-1	0	0	0	0	-0.20009984	-0.07081132	-2.0092423e-09	NaN	NaN	NaN	6.223776e-07	1e-07
0	0	-0.31019875	0	0	1	0	0	-1	0	0	-1	0	0	0	0	-0.20354313	-0.07802235	-1.5004642e-09	NaN	NaN	NaN	6.293706e-07	1e-07
0	0	-0.31019875	0	0	1	0	0	-1	0	0	-1	0	0	0	0	-0.20616764	-0.08550648	-2.630124e-09	NaN	NaN	NaN	6.363636e-07	1e-07
0	0	-0.31019875	0	0	1	0	0	-1	0	0	-1	0	0	0	0	-0.20773551	-0.09294912	-3.0009284e-09	NaN	NaN	NaN	6.4335666e-07	1e-07
0	0	-0.31019875	0	0	1	0	0	-1	0	0	-1	0	0	0	0	-0.20807254	-0.099948615	-3.7770302e-09	NaN	NaN	NaN	6.5034965e-07	1e-07
0	0	-0.31019875	0	0	1	0	0	-1	0	0	-1	0	0	0	0	-0.20710075	-0.10607043	-3.5700698e-09	NaN	NaN	NaN	6.5734264e-07	1e-07
0	0	-0.31019875	0	0	1	0	0	-1	0	0	-1	0	0	0	0	-0.20483246	-0.11091405	-4.3116786e-09	NaN	NaN	NaN	6.643357e-07	1e-07
0	0	-0.31019875	0	0	1	0	0	-1	0	0	-1	0	0	0	0	-0.20132647	-0.11417314	-4.346172e-09	NaN	NaN	NaN	6.713287e-07	1e-07
0	0	-0.31019875	0	0	1	0	0	-1	0	0	-1	0	0	0	0	-0.19663832	-0.115661494	-5.0360405e-09	NaN	NaN	NaN	6.7832167e-07	1e-07
0	0	-0.31019875	0	0	1	0	0	-1	0	0	-1	0	0	0	0	-0.19077933	-0.115323134	-5.122274e-09	NaN	NaN	NaN	6.8531466e-07	1e-07
0	0	-0.31019875	0	0	1	0	0	-1	0	0	-1	0	0	0	0	-0.18370199	-0.11323346	-6.0191034e-09	NaN	NaN	NaN	6.923077e-07	1e-07
0	0	-0.31019875	0	0	1	0	0	-1	0	0	-1	0	0	0	0	-0.17531437	-0.109598495	-5.260248e-09	NaN	NaN	NaN	6.993007e-07	1e-07
0	0	-0.31019875	0	0	1	0	0	-1	0	0	-1	0	0	0	0	-0.16552179	-0.10474539	-5.484455e-09	NaN	NaN	NaN	7.062937e-07	1e-07
0	0	-0.31019875	0	0	1	0	0	-1	0	0	-1	0	0	0	0	-0.15427607	-0.09909669	-4.82908e-09	NaN	NaN	NaN	7.1328674e-07	1e-07
0	0	-0.31019875	0	0	1	0	0	-1	0	0	-1	0	0	0	0	-0.14162028	-0.0931109	-7.2091266e-09	NaN	NaN	NaN	7.2027973e-07	1e-07
0	0	-0.31019875	0	0	1	0	0	-1	0	0	-1	0	0	0	0	-0.12769447	-0.087215945	-4.5186392e-09	NaN	NaN	NaN	7.272727e-07	1e-07
0	0	-0.31019875	0	0	1	0	0	-1	0	0	-1	0	0	0	0	-0.112704046	-0.08175541	-7.1056463e-09	NaN	NaN	NaN	7.342657e-07	1e-07
0	0	-0.31019875	0	0	1	0	0	-1	0	0	-1	0	0	0	0	-0.09687975	-0.07697468	-4.2081982e-09	NaN	NaN	NaN	7.4125876e-07	1e-07
0	0	-0.31019875	0	0	1	0	0	-1	0	0	-1	0	0	0	0	-0.08044184	-0.07302974	-5.725909e-09	NaN	NaN	NaN	7.4825175e-07	1e-07
0	0	-0.31019875	0	0	1	0	0	-1	0	0	-1	0	0	0	0	-0.06358097	-0.0700095	-4.104718e-09	NaN	NaN	NaN	7.5524474e-07	1e-07
0	0	-0.31019875	0	0	1	0	0	-1	0	0	-1	0	0	0	0	-0.04645428	-0.06795948	-7.1056463e-09	NaN	NaN	NaN	7.622378e-07	1e-07
0	0	-0.31019875	0	0	1	0	0	-1	0	0	-1	0	0	0	0	-0.029190347	-0.066899925	-4.656613e-09	NaN	NaN	NaN	7.692308e-07	1e-07
0	0	-0.31019875	0	0	1	0	0	-1	0	0	-1	0	0	0	0	-0.01189946	-0.06683799	-5.6569225e-09	NaN	NaN	NaN	7.7622377e-07	1e-07
0	0	-0.31019875	0	0	1	0	0	-1	0	0	-1	0	0	0	0	0.0053144423	-0.06777335	-6.7262187e-09	NaN	NaN	NaN	7.8321676e-07	1e-07
0	0	-0.31019875	0	0	1	0	0	-1	0	0	-1	0	0	0	0	0.022340927	-0.06969825	-5.4154685e-09	NaN	NaN	NaN	7.902098e-07	1e-07
0	0	-0.31019875	0	0	1	0	0	-1	0	0	-1	0	0	0	0	0.039051015	-0.072591715	-5.1050275e-09	NaN	NaN	NaN	7.972028e-07	1e-07
0	0	-0.31019875	0	0	1	0	0	-1	0	0	-1	0	0	0	0	0.055287078	-0.076407656	-8.105956e-09	NaN	NaN	NaN	8.041958e-07	1e-07
0	0	-0.31019875	0	0	1	0	0	-1	0	0	-1	0	0	0	0	0.07085765	-0.08105633	-3.5528231e-09	NaN	NaN	NaN	8.111888e-07	1e-07
0	0	-0.31019875	0	0	1	0	0	-1	0	0	-1	0	0	0	0	0.085541666	-0.0863812	-4.93256e-09	NaN	NaN	NaN	8.1818183e-07	1e-07
0	0	-0.31019875	0	0	1	0	0	-1	0	0	-1	0	0	0	0	0.099107176	-0.09213597	-5.8638827e-09	NaN	NaN	NaN	8.251748e-07	1e-07
0	0	-0.31019875	0	0	1	0	0	-1	0	0	-1	0	0	0	0	0.11134755	-0.0979764	-4.484146e-09	NaN	NaN	NaN	8.321678e-07	1e-07
0	0	-0.31019875	0	0	1	0	0	-1	0	0	-1	0	0	0	0	0.122121066	-0.10347356	-5.5189484e-09	NaN	NaN	NaN	8.3916086e-07	1e-07
0	0	-0.31019875	0	0	1	0	0	-1	0	0	-1	0	0	0	0	0.13138308	-0.10816817	-5.260248e-09	NaN	NaN	NaN	8.4615385e-07	1e-07
0	0	-0.31019875	0	0	1	0	0	-1	0	0	-1	0	0	0	0	0.1391796	-0.11163657	-5.3809748e-09	NaN	NaN	NaN	8.5314684e-07	1e-07
0	0	-0.31019875	0	0	1	0	0	-1	0	0	-1	0	0	0	0	0.14560324	-0.1135506	-5.8293894e-09	NaN	NaN	NaN	8.6013983e-07	1e-07
0	0	-0.31019875	0	0	1	0	0	-1	0	0	-1	0	0	0	0	0.15074323	-0.11370298	-4.1219645e-09	NaN	NaN	NaN	8.671329e-07	1e-07
0	0	-0.31019875	0	0	1	0	0	-1	0	0	-1	0	0	0	0	0.15464446	-0.11201714	-4.173705e-09	NaN	NaN	NaN	8.741259e-07	1e-07
0	0	-0.31019875	0	0	1	0	0	-1	0	0	-1	0	0	0	0	0.1572924	-0.108547464	-3.0699152e-09	NaN	NaN	NaN	8.8111886e-07	1e-07
0	0	-0.31019875	0	0	1	0	0	-1	0	0	-1	0	0	0	0	0.15862818	-0.103478685	-4.0874713e-09	NaN	NaN	NaN	8.881119e-07	1e-07
0	0	-0.31019875	0	0	1	0	0	-1	0	0	-1	0	0	0	0	0.15858918	-0.09711531	-4.5531325e-09	NaN	NaN	NaN	8.951049e-07	1e-07
0	0	-0.31019875	0	0	1	0	0	-1	0	0	-1	0	0	0	0	0.15715899	-0.08985592	-3.2941225e-09	NaN	NaN	NaN	9.020979e-07	1e-07
0	0	-0.31019875	0	0	1	0	0	-1	0	0	-1	0	0	0	0	0.15441102	-0.08213273	-2.8284612e-09	NaN	NaN	NaN	9.090909e-07	1e-07
0	0	-0.31019875	0	0	1	0	0	-1	0	0	-1	0	0	0	0	0.15051454	-0.074345075	-2.7680978e-09	NaN	NaN	NaN	9.1608393e-07	1e-07
0	0	-0.31019875	0	0	1	0	0	-1	0	0	-1	0	0	0	0	0.14570189	-0.0668046	-2.1213458e-09	NaN	NaN	NaN	9.230769e-07	1e-07
0	0	-0.31019875	0	0	1	0	0	-1	0	0	-1	0	0	0	0	0.14022775	-0.059721436	-1.8626451e-09	NaN	NaN	NaN	9.300699e-07	1e-07
0	0	-0.31019875	0	0	1	0	0	-1	0	0	-1	0	0	0	0	0.13433184	-0.05321206	-1.2158934e-09	NaN	NaN	NaN	9.3706296e-07	1e-07
0	0	-0.31019875	0	0	1	0	0	-1	0	0	-1	0	0	0	0	0.12821817	-0.04732196	-1.4012955e-09	NaN	NaN	NaN	9.4405596e-07	1e-07
0	0	-0.31019875	0	0	1	0	0	-1	0	0	-1	0	0	0	0	0.12204841	-0.0420489	-7.3729706e-10	NaN	NaN	NaN	9.5104895e-07	1e-07
0	0	-0.31019875	0	0	1	0	0	-1	0	0	-1	0	0	0	0	0.1159437	-0.037362117	-2.2118911e-09	NaN	NaN	NaN	9.580419e-07	1e-07
0	0	-0.31019875	0	0	1	0	0	-1	0	0	-1	0	0	0	0	0.10999051	-0.033215694	-7.761021e-10	NaN	NaN	NaN	9.650349e-07	1e-07
0	0	-0.31019875	0	0	1	0	0	-1	0	0	-1	0	0	0	0	0.10424744	-0.029557582	-8.9682917e-10	NaN	NaN	NaN	9.720279e-07	1e-07
0	0	-0.31019875	0	0	1	0	0	-1	0	0	-1	0	0	0	0	0.09875153	-0.026334837	-3.018175e-11	NaN	NaN	NaN	9.79021e-07	1e-07
0	0	-0.31019875	0	0	1	0	0	-1	0	0	-1	0	0	0	0	0.09352371	-0.023496892	-7.8903717e-10	NaN	NaN	NaN	9.86014e-07	1e-07
0	0	-0.31019875	0	0	1	0	0	-1	0	0	-1	0	0	0	0	0.08857321	-0.020996995	-1.810905e-10	NaN	NaN	NaN	9.93007e-07	1e-07
0	0	-0.31019875	0	0	1	0	0	-1	0	0	-1	0	0	0	0	0.08857321	-0.020996995	-1.810905e-10	0.0022080485	0.00821842	5.458589e-06	9.93007e-07	5e-07
0	0	-0.31019875	0	0	1	0	0	-1	0	0	-1	0	0	0	0	0.08857321	-0.020996995	-1.810905e-10	0.0024883181	0.008292536	5.6507756e-06	9.93007e-07	5.0963854e-07
0	0	-0.31019875	0	0	1	0	0	-1	0	0	-1	0	0	0	0	0.08857321	-0.020996995	-1.810905e-10	0.0027731732	0.008370796	5.848242e-06	9.93007e-07	5.1927714e-07
0	0	-0.31019875	0	0	1	0	0	-1	0	0	-1	0	0	0	0	0.08857321	-0.020996995	-1.810905e-10	0.003063139	0.00845331	6.0513457e-06	9.93007e-07	5.289157e-07
0	0	-0.31019875	0	0	1	0	0	-1	0	0	-1	0	0	0	0	0.08857321	-0.020996995	-1.810905e-10	0.0033587555	0.008540204	6.260667e-06	9.93007e-07	5.385542e-07
0	0	-0.31019875	0	0	1	0	0	-1	0	0	-1	0	0	0	0	0.08857321	-0.020996995	-1.810905e-10	0.003660589	0.00863161	6.476558e-06	9.93007e-07	5.4819276e-07
0	0	-0.31019875	0	0	1	0	0	-1	0	0	-1	0	0	0	0	0.08857321	-0.020996995	-1.810905e-10	0.0039692307	0.008727678	6.6994803e-06	9.93007e-07	5.578313e-07
0	0	-0.31019875	0	0	1	0	0	-1	0	0	-1	0	0	0	0	0.08857321	-0.020996995	-1.810905e-10	0.0042853	0.00882856	6.929942e-06	9.93007e-07	5.674699e-07
0	0	-0.31019875	0	0	1	0	0	-1	0	0	-1	0	0	0	0	0.08857321	-0.020996995	-1.810905e-10	0.0046094465	0.008934421	7.1684813e-06	9.93007e-07	5.7710844e-07
0	0	-0.31019875	0	0	1	0	0	-1	0	0	-1	0	0	0	0	0.08857321	-0.020996995	-1.810905e-10	0.0049423515	0.009045442	7.415545e-06	9.93007e-07	5.86747e-07
0	0	-0.31019875	0	0	1	0	0	-1	0	0	-1	0	0	0	0	0.08857321	-0.020996995	-1.810905e-10	0.005284735	0.009161809	7.6717515e-06	9.93007e-07	5.963855e-07
0	0	-0.31019875	0	0	1	0	0	-1	0	0	-1	0	0	0	0	0.08857321	-0.020996995	-1.810905e-10	0.0056824666	0.009310139	6.9454313e-06	9.93007e-07	6.060241e-07
0	0	-0.31019875	0	0	1	0	0	-1	0	0	-1	0	0	0	0	0.08857321	-0.020996995	-1.810905e-10	0.0060846168	0.009460845	6.3447324e-06	9.93007e-07	6.1566266e-07
0	0	-0.31019875	0	0	1	0	0	-1	0	0	-1	0	0	0	0	0.08857321	-0.020996995	-1.810905e-10	0.0064937035	0.009615028	5.8396627e-06	9.93007e-07	6.253012e-07
0	0	-0.31019875	0	0	1	0	0	-1	0	0	-1	0	0	0	0	0.08857321	-0.020996995	-1.810905e-10	0.0069118063	0.00977355	5.409089e-06	9.93007e-07	6.3493974e-07
0	0	-0.31019875	0	0	1	0	0	-1	0	0	-1	0	0	0	0	0.08857321	-0.020996995	-1.810905e-10	0.0073407413	0.009937119	5.0376625e-06	9.93007e-07	6.4457834e-07
0	0	-0.31019875	0	0	1	0	0	-1	0	0	-1	0	0	0	0	0.08857321	-0.020996995	-1.810905e-10	0.007782164	0.010106341	4.7140065e-06	9.93007e-07	6.542169e-07
0	0	-0.31019875	0	0	1	0	0	-1	0	0	-1	0	0	0	0	0.08857321	-0.020996995	-1.810905e-10	0.008237645	0.010281759	4.4294197e-06	9.93007e-07	6.638554e-07
0	0	-0.31019875	0	0	1	0	0	-1	0	0	-1	0	0	0	0	0.08857321	-0.020996995	-1.810905e-10	0.008708716	0.010463867	4.177233e-06	9.93007e-07	6.7349396e-07
0	0	-0.31019875	0	0	1	0	0	-1	0	0	-1	0	0	0	0	0.08857321	-0.020996995	-1.810905e-10	0.009196901	0.010653134	3.952228e-06	9.93007e-07	6.8313255e-07
0	0	-0.31019875	0	0	1	0	0	-1	0	0	-1	0	0	0	0	0.08857321	-0.020996995	-1.810905e-10	0.009703747	0.010850008	3.7501907e-06	9.93007e-07	6.927711e-07
0	0	-0.31019875	0	0	1	0	0	-1	0	0	-1	0	0	0	0	0.08857321	-0.020996995	-1.810905e-10	0.010230843	0.0110549135	3.567796e-06	9.93007e-07	7.0240964e-07
0	0	-0.31019875	0	0	1	0	0	-1	0	0	-1	0	0	0	0	0.08857321	-0.020996995	-1.810905e-10	0.0107798325	0.011268273	3.4023194e-06	9.93007e-07	7.120482e-07
0	0	-0.31019875	0	0	1	0	0	-1	0	0	-1	0	0	0	0	0.08857321	-0.020996995	-1.810905e-10	0.011352431	0.011490486	3.2515034e-06	9.93007e-07	7.216868e-07
0	0	-0.31019875	0	0	1	0	0	-1	0	0	-1	0	0	0	0	0.08857321	-0.020996995	-1.810905e-10	0.011950437	0.0117219435	3.1134834e-06	9.93007e-07	7.313253e-07
0	0	-0.31019875	0	0	1	0	0	-1	0	0	-1	0	0	0	0	0.08857321	-0.020996995	-1.810905e-10	0.012575742	0.011963011	2.9867174e-06	9.93007e-07	7.4096386e-07
0	0	-0.31019875	0	0	1	0	0	-1	0	0	-1	0	0	0	0	0.08857321	-0.020996995	-1.810905e-10	0.013230341	0.0122140255	2.869863e-06	9.93007e-07	7.506024e-07
0	0	-0.31019875	0	0	1	0	0	-1	0	0	-1	0	0	0	0	0.08857321	-0.020996995	-1.810905e-10	0.014312481	0.012619318	2.670553e-06	9.93007e-07	7.6024094e-07
0	0	-0.31019875	0	0	1	0	0	-1	0	0	-1	0	0	0	0	0.08857321	-0.020996995	-1.810905e-10	0.015453813	0.013046955	2.4603296e-06	9.93007e-07	7.6987953e-07
0	0	-0.31019875	0	0	1	0	0	-1	0	0	-1	0	0	0	0	0.08857321	-0.020996995	-1.810905e-10	0.016659448	0.013497586	2.2388328e-06	9.93007e-07	7.795181e-07
0	0	-0.31019875	0	0	1	0	0	-1	0	0	-1	0	0	0	0	0.08857321	-0.020996995	-1.810905e-10	0.01793483	0.01397175	2.0056561e-06	9.93007e-07	7.891566e-07
0	0	-0.31019875	0	0	1	0	0	-1	0	0	-1	0	0	0	0	0.08857321	-0.020996995	-1.810905e-10	0.019285759	0.014469825	1.7603194e-06	9.93007e-07	7.9879516e-07
0	0	-0.31019875	0	0	1	0	0	-1	0	0	-1	0	0	0	0	0.08857321	-0.020996995	-1.810905e-10	0.02071838	0.014991953	1.5022963e-06	9.93007e-07	8.0843375e-07
0	0	-0.31019875	0	0	1	0	0	-1	0	0	-1	0	0	0	0	0.08857321	-0.020996995	-1.810905e-10	0.022239206	0.015537956	1.2310346e-06	9.93007e-07	8.180723e-07
0	0	-0.31019875	0	0	1	0	0	-1	0	0	-1	0	0	0	0	0.08857321	-0.020996995	-1.810905e-10	0.023855118	0.016107224	9.45875e-07	9.93007e-07	8.2771083e-07
0	0	-0.31019875	0	0	1	0	0	-1	0	0	-1	0	0	0	0	0.08857321	-0.020996995	-1.810905e-10	0.025573311	0.016698565	6.46149e-07	9.93007e-07	8.373494e-07
0	0	-0.31019875	0	0	1	0	0	-1	0	0	-1	0	0	0	0	0.08857321	-0.020996995	-1.810905e-10	0.027401295	0.017310036	3.3113463e-07	9.93007e-07	8.46988e-07
0	0	-0.31019875	0	0	1	0	0	-1	0	0	-1	0	0	0	0	0.08857321	-0.020996995	-1.810905e-10	0.02934679	0.017938707	1.8113337e-11	9.93007e-07	8.566265e-07
0	0	-0.31019875	0	0	1	0	0	-1	0	0	-1	0	0	0	0	0.08857321	-0.020996995	-1.810905e-10	0.031524755	0.018615065	-9.3031815e-12	9.93007e-07	8.6626505e-07
0	0	-0.31019875	0	0	1	0	0	-1	0	0	-1	0	0	0	0	0.08857321	-0.020996995	-1.810905e-10	0.03385311	0.019303203	-2.6831625e-11	9.93007e-07	8.759036e-07
0	0	-0.31019875	0	0	1	0	0	-1	0	0	-1	0	0	0	0	0.08857321	-0.020996995	-1.810905e-10	0.036341105	0.019995216	-5.76932e-11	9.93007e-07	8.855422e-07
0	0	-0.31019875	0	0	1	0	0	-1	0	0	-1	0	0	0	0	0.08857321	-0.020996995	-1.810905e-10	0.03899731	0.020680524	-8.483718e-11	9.93007e-07	8.9518073e-07
0	0	-0.31019875	0	0	1	0	0	-1	0	0	-1	0	0	0	0	0.08857321	-0.020996995	-1.810905e-10	0.041829042	0.021345273	-9.5885855e-11	9.93007e-07	9.048193e-07
0	0	-0.31019875	0	0	1	0	0	-1	0	0	-1	0	0	0	0	0.08857321	-0.020996995	-1.810905e-10	0.044841476	0.021971714	-1.1307132e-10	9.93007e-07	9.144578e-07
0	0	-0.31019875	0	0	1	0	0	-1	0	0	-1	0	0	0	0	0.08857321	-0.020996995	-1.810905e-10	0.04803634	0.02253761	-1.2634321e-10	9.93007e-07	9.240964e-07
0	0	-0.31019875	0	0	1	0	0	-1	0	0	-1	0	0	0	0	0.08857321	-0.020996995	-1.810905e-10	0.05141024	0.023015885	-1.5015543e-10	9.93007e-07	9.3373495e-07
0	0	-0.31019875	0	0	1	0	0	-1	0	0	-1	0	0	0	0	0.08857321	-0.020996995	-1.810905e-10	0.054952364	0.023374727	-1.3848205e-10	9.93007e-07	9.433735e-07
0	0	-0.31019875	0	0	1	0	0	-1	0	0	-1	0	0	0	0	0.08857321	-0.020996995	-1.810905e-10	0.058641884	0.023578657	-1.12575234e-10	9.93007e-07	9.5301203e-07
0	0	-0.31019875	0	0	1	0	0	-1	0	0	-1	0	0	0	0	0.08857321	-0.020996995	-1.810905e-10	0.06244535	0.023591083	-6.7939564e-11	9.93007e-07	9.626506e-07
0	0	-0.31019875	0	0	1	0	0	-1	0	0	-1	0	0	0	0	0.08857321	-0.020996995	-1.810905e-10	0.066315085	0.023378674	-1.70936e-11	9.93007e-07	9.722892e-07
0	0	-0.31019875	0	0	1	0	0	-1	0	0	-1	0	0	0	0	0.08857321	-0.020996995	-1.810905e-10	0.07019032	0.022917217	2.4455302e-11	9.93007e-07	9.819277e-07
0	0	-0.31019875	0	0	1	0	0	-1	0	0	-1	0	0	0	0	0.08857321	-0.020996995	-1.810905e-10	0.07191137	0.023146948	5.0302054e-11	9.93007e-07	9.915663e-07
0	0	-0.31019875	0	0	1	0	0	-1	0	0	-1	0	0	0	0	0.08857321	-0.020996995	-1.810905e-10	0.07369545	0.0233671	6.267907e-11	9.93007e-07	1.0012049e-06
0	0	-0.31019875	0	0	1	0	0	-1	0	0	-1	0	0	0	0	0.08857321	-0.020996995	-1.810905e-10	0.07554489	0.023574913	7.668694e-11	9.93007e-07	1.0108433e-06
0	0	-0.31019875	0	0	1	0	0	-1	0	0	-1	0	0	0	0	0.08857321	-0.020996995	-1.810905e-10	0.077461965	0.02376713	1.1576825e-10	9.93007e-07	1.0204819e-06
0	0	-0.31019875	0	0	1	0	0	-1	0	0	-1	0	0	0	0	0.08857321	-0.020996995	-1.810905e-10	0.07944884	0.023939928	1.5541085e-10	9.93007e-07	1.0301205e-06
0	0	-0.31019875	0	0	1	0	0	-1	0	0	-1	0	0	0	0	0.08857321	-0.020996995	-1.810905e-10	0.08150749	0.024088789	1.6211842e-10	9.93007e-07	1.039759e-06
0	0	-0.31019875	0	0	1	0	0	-1	0	0	-1	0	0	0	0	0.08857321	-0.020996995	-1.810905e-10	0.08363962	0.024208412	1.4611445e-10	9.93007e-07	1.0493976e-06
0	0	-0.31019875	0	0	1	0	0	-1	0	0	-1	0	0	0	0	0.08857321	-0.020996995	-1.810905e-10	0.08584658	0.024292557	1.221595e-10	9.93007e-07	1.0590361e-06
0	0	-0.31019875	0	0	1	0	0	-1	0	0	-1	0	0	0	0	0.08857321	-0.020996995	-1.810905e-10	0.088129215	0.024333907	9.069224e-11	9.93007e-07	1.0686747e-06
0	0	-0.31019875	0	0	1	0	0	-1	0	0	-1	0	0	0	0	0.08857321	-0.020996995	-1.810905e-10	0.09048769	0.024323901	4.8013538e-11	9.93007e-07	1.0783133e-06
0	0	-0.31019875	0	0	1	0	0	-1	0	0	-1	0	0	0	0	0.08857321	-0.020996995	-1.810905e-10	0.09292123	0.024252502	5.5437835e-11	9.93007e-07	1.0879518e-06
0	0	-0.31019875	0	0	1	0	0	-1	0	0	-1	0	0	0	0	0.08857321	-0.020996995	-1.810905e-10	0.095427915	0.024108026	5.8163564e-11	9.93007e-07	1.0975904e-06
0	0	-0.31019875	0	0	1	0	0	-1	0	0	-1	0	0	0	0	0.08857321	-0.020996995	-1.810905e-10	0.098004214	0.023876887	8.669729e-11	9.93007e-07	1.107229e-06
0	0	-0.31019875	0	0	1	0	0	-1	0	0	-1	0	0	0	0	0.08857321	-0.020996995	-1.810905e-10	0.10064457	0.023543386	1.2959346e-10	9.93007e-07	1.1168675e-06
0	0	-0.31019875	0	0	1	0	0	-1	0	0	-1	0	0	0	0	0.08857321	-0.020996995	-1.810905e-10	0.103340715	0.023089485	2.0907354e-10	9.93007e-07	1.126506e-06
0	0	-0.31019875	0	0	1	0	0	-1	0	0	-1	0	0	0	0	0.08857321	-0.020996995	-1.810905e-10	0.10608095	0.02249468	2.9194028e-10	9.93007e-07	1.1361445e-06
0	0	-0.31019875	0	0	1	0	0	-1	0	0	-1	0	0	0	0	0.08857321	-0.020996995	-1.810905e-10	0.10884909	0.021735935	4.2590811e-10	9.93007e-07	1.1457831e-06
0	0	-0.31019875	0	0	1	0	0	-1	0	0	-1	0	0	0	0	0.08857321	-0.020996995	-1.810905e-10	0.11162324	0.020787897	5.5040045e-10	9.93007e-07	1.1554217e-06
0	0	-0.31019875	0	0	1	0	0	-1	0	0	-1	0	0	0	0	0.08857321	-0.020996995	-1.810905e-10	0.11437427	0.019623412	6.5367867e-10	9.93007e-07	1.1650602e-06
0	0	-0.31019875	0	0	1	0	0	-1	0	0	-1	0	0	0	0	0.08857321	-0.020996995	-1.810905e-10	0.117064014	0.018214682	6.71278e-10	9.93007e-07	1.1746988e-06
0	0	-0.31019875	0	0	1	0	0	-1	0	0	-1	0	0	0	0	0.08857321	-0.020996995	-1.810905e-10	0.11964343	0.016535308	6.858141e-10	9.93007e-07	1.1843373e-06
0	0	-0.31019875	0	0	1	0	0	-1	0	0	-1	0	0	0	0	0.08857321	-0.020996995	-1.810905e-10	0.122050926	0.014563686	8.743055e-10	9.93007e-07	1.1939759e-06
0	0	-0.31019875	0	0	1	0	0	-1	0	0	-1	0	0	0	0	0.08857321	-0.020996995	-1.810905e-10	0.12421166	0.012288145	9.2917285e-10	9.93007e-07	1.2036145e-06
0	0	-0.31019875	0	0	1	0	0	-1	0	0	-1	0	0	0	0	0.08857321	-0.020996995	-1.810905e-10	0.12603912	0.009713978	9.604264e-10	9.93007e-07	1.213253e-06
0	0	-0.31019875	0	0	1	0	0	-1	0	0	-1	0	0	0	0	0.08857321	-0.020996995	-1.810905e-10	0.12744094	0.006871532	1.0219413e-09	9.93007e-07	1.2228916e-06
0	0	-0.31019875	0	0	1	0	0	-1	0	0	-1	0	0	0	0	0.08857321	-0.020996995	-1.810905e-10	0.12833071	0.0038226247	9.498432e-10	9.93007e-07	1.2325302e-06
0	0	-0.31019875	0	0	1	0	0	-1	0	0	-1	0	0	0	0	0.08857321	-0.020996995	-1.810905e-10	NaN	NaN	NaN	9.93007e-07	1.2421687e-06
0	0	-0.31019875	0	0	1	0	0	-1	0	0	-1	0	0	0	0	0.08857321	-0.020996995	-1.810905e-10	NaN	NaN	NaN	9.93007e-07	1.2518072e-06
0	0	-0.31019875	0	0	1	0	0	-1	0	0	-1	0	0	0	0	0.08857321	-0.020996995	-1.810905e-10	NaN	NaN	NaN	9.93007e-07	1.2614457e-06
0	0	-0.31019875	0	0	1	0	0	-1	0	0	-1	0	0	0	0	0.08857321	-0.020996995	-1.810905e-10	NaN	NaN	NaN	9.93007e-07	1.2710843e-06
0	0	-0.31019875	0	0	1	0	0	-1	0	0	-1	0	0	0	0	0.08857321	-0.020996995	-1.810905e-10	NaN	NaN	NaN	9.93007e-07	1.2807229e-06
0	0	-0.31019875	0	0	1	0	0	-1	0	0	-1	0	0	0	0	0.08857321	-0.020996995	-1.810905e-10	NaN	NaN	NaN	9.93007e-07	1.2903614e-06
