# t (s)	mx ()	my ()	mz ()	m.region21x ()	m.region21y ()	m.region21z ()	m.region22x ()	m.region22y ()	m.region22z ()	m.region23x ()	m.region23y ()	m.region23z ()	B_extx (T)	B_exty (T)	B_extz (T)	B_eff.region6x (T)	B_eff.region6y (T)	B_eff.region6z (T)	B_eff.region9x (T)	B_eff.region9y (T)	B_eff.region9z (T)	step_x (No unit)	step_y (No unit)
0	0.120986626	-0.20221941	-0.001297992	0.7046201	-0.70708317	3.8543072e-05	-0.014449894	0.016548548	-0.0047213105	-0.115415856	-0.123641804	-0.00711578	0	0	0	NaN	NaN	NaN	NaN	NaN	NaN	0	1e-07
0	0.09990637	-0.18157938	-0.0014125874	0.7042057	-0.7074752	3.997044e-05	-0.12664986	0.1285804	-0.0048154127	-0.11909313	-0.12019895	-0.0071120462	-0.004242653	0.004242653	0	NaN	NaN	NaN	NaN	NaN	NaN	0	1e-07
0	0.08552423	-0.16767067	-0.0014794287	0.703963	-0.70769507	4.073133e-05	-0.19369589	0.19485737	-0.004811597	-0.122680515	-0.11652676	-0.0070926566	-0.008485306	0.008485306	0	NaN	NaN	NaN	NaN	NaN	NaN	0	1e-07
0	0.07046	-0.15251918	-0.0015186328	0.7037173	-0.70791715	4.1096744e-05	-0.26927748	0.27039185	-0.004872901	-0.12435433	-0.110624775	-0.0073807794	-0.012727873	0.012727873	0	NaN	NaN	NaN	NaN	NaN	NaN	0	1e-07
0	0.054440953	-0.13595024	-0.0014636829	0.70340025	-0.70820916	3.6424422e-05	-0.36604542	0.367449	-0.0039085587	-0.12301672	-0.101989634	-0.007037052	-0.016970612	0.016970612	0	NaN	NaN	NaN	NaN	NaN	NaN	0	1e-07
0	0.036701165	-0.11875951	-0.0014769282	0.7031197	-0.7084647	3.8924638e-05	-0.45343232	0.45362	-0.0044029374	-0.12673815	-0.098498434	-0.0069945566	-0.021213247	0.021213247	0	NaN	NaN	NaN	NaN	NaN	NaN	0	1e-07
0	0.0061904807	-0.0886357	-0.0011237419	0.7024267	-0.70912933	2.4449047e-05	-0.70423186	0.70694214	4.5665233e-06	-0.1299804	-0.09485076	-0.0069642863	-0.025455747	0.025455747	0	NaN	NaN	NaN	NaN	NaN	NaN	0	1e-07
0	-0.0146115245	-0.06830793	-0.00053144945	0.7023988	-0.7091325	2.3788027e-05	-0.70430535	0.7068995	3.2952403e-06	-0.13398312	-0.09145898	-0.006916382	-0.029698389	0.029698389	0	NaN	NaN	NaN	NaN	NaN	NaN	0	1e-07
0	-0.016183376	-0.06696977	-0.00052828656	0.7023891	-0.70911735	2.3734587e-05	-0.7043415	0.70689255	3.2700088e-06	-0.13785575	-0.087978765	-0.0068692155	-0.033941224	0.033941224	0	NaN	NaN	NaN	NaN	NaN	NaN	0	1e-07
0	-0.017720735	-0.064334735	-0.0005113016	0.7023749	-0.7091063	2.358727e-05	-0.7043899	0.7068715	1.3080174e-06	-0.14170793	-0.08449493	-0.006822594	-0.03818381	0.03818381	0	NaN	NaN	NaN	NaN	NaN	NaN	0	1e-07
0	-0.01928952	-0.063078575	-0.00050651556	0.7023654	-0.7090902	2.355953e-05	-0.7044213	0.7068685	1.2170157e-06	-0.14557463	-0.08100453	-0.0067777047	-0.042426493	0.042426493	0	NaN	NaN	NaN	NaN	NaN	NaN	0	1e-07
0	-0.020578459	-0.061535023	-0.00049566536	0.7023618	-0.70906687	2.4551053e-05	-0.70443976	0.7068779	1.237811e-06	-0.14634106	-0.07434625	-0.0066680666	-0.04666901	0.04666901	0	NaN	NaN	NaN	NaN	NaN	NaN	0	1e-07
0	-0.021356324	-0.057125997	-0.0005804821	0.7023634	-0.70903826	2.4601188e-05	-0.7044648	0.706878	7.0553574e-06	-0.14189826	-0.06252738	-0.0065491833	-0.050911494	0.050911494	0	NaN	NaN	NaN	NaN	NaN	NaN	0	1e-07
0	-0.022676107	-0.055603158	-0.0005717801	0.70235974	-0.7090146	2.4634017e-05	-0.7044891	0.7068806	6.9929424e-06	-0.14304474	-0.056074627	-0.0064513357	-0.055154674	0.055154674	0	NaN	NaN	NaN	NaN	NaN	NaN	0	1e-07
0	-0.023963558	-0.05405971	-0.0005584132	0.7023563	-0.70899045	2.4434778e-05	-0.7045131	0.70688325	6.8769054e-06	-0.14383633	-0.049411457	-0.006301029	-0.059396777	0.059396777	0	NaN	NaN	NaN	NaN	NaN	NaN	0	1e-07
0	-0.025504325	-0.05277322	-0.0005545614	0.70234674	-0.7089718	2.4401941e-05	-0.704542	0.7068804	6.8167237e-06	-0.14743981	-0.045645446	-0.006257677	-0.06363919	0.06363919	0	NaN	NaN	NaN	NaN	NaN	NaN	0	1e-07
0	-0.027068308	-0.051512107	-0.00055045163	0.7023364	-0.70895356	2.4333256e-05	-0.7045713	0.7068767	6.7494166e-06	-0.15130237	-0.04218654	-0.0062114275	-0.06788245	0.06788245	0	NaN	NaN	NaN	NaN	NaN	NaN	0	1e-07
0	-0.028629152	-0.050245255	-0.0005465719	0.7023258	-0.7089349	2.4270132e-05	-0.7046004	0.7068729	6.68517e-06	-0.15513094	-0.03868914	-0.0061677657	-0.07212458	0.07212458	0	NaN	NaN	NaN	NaN	NaN	NaN	0	1e-07
0	-0.02998994	-0.048768923	-0.0005362487	0.7023179	-0.7089131	2.4152607e-05	-0.7046271	0.706871	6.5980294e-06	-0.15673624	-0.03287346	-0.006051772	-0.07636762	0.07636762	0	NaN	NaN	NaN	NaN	NaN	NaN	0	1e-07
0	-0.03156109	-0.047508378	-0.00053177564	0.7023068	-0.70889384	2.4083156e-05	-0.70465565	0.70686674	6.5324275e-06	-0.16067973	-0.02950063	-0.006001456	-0.080609836	0.080609836	0	NaN	NaN	NaN	NaN	NaN	NaN	0	1e-07
0	-0.033129644	-0.0462432	-0.0005272772	0.7022956	-0.7088742	2.4012717e-05	-0.7046839	0.7068625	6.4655637e-06	-0.16459356	-0.02610481	-0.0059508523	-0.084852986	0.084852986	0	NaN	NaN	NaN	NaN	NaN	NaN	0	1e-07
0	-0.03469695	-0.044974368	-0.0005227923	0.70228416	-0.7088541	2.3941764e-05	-0.7047118	0.7068582	6.399912e-06	-0.16849275	-0.022697914	-0.0059003998	-0.0890958	0.0890958	0	NaN	NaN	NaN	NaN	NaN	NaN	0	1e-07
0	-0.036263626	-0.043702066	-0.0005183945	0.7022725	-0.7088335	2.3875595e-05	-0.70473945	0.7068538	6.3352995e-06	-0.17238389	-0.01928287	-0.005850929	-0.09333802	0.09333802	0	NaN	NaN	NaN	NaN	NaN	NaN	0	1e-07
0	-0.037815943	-0.0424101	-0.0005143519	0.70226115	-0.70881194	2.384207e-05	-0.7047662	0.7068499	6.276577e-06	-0.17611413	-0.015680414	-0.0058054486	-0.09758025	0.09758025	0	NaN	NaN	NaN	NaN	NaN	NaN	0	1e-07
0	-0.039401576	-0.041149966	-0.0005117206	0.70224875	-0.70879084	2.3790919e-05	-0.7047935	0.7068452	6.217795e-06	-0.18021218	-0.01246595	-0.005775795	-0.10182299	0.10182299	0	NaN	NaN	NaN	NaN	NaN	NaN	0	1e-07
0	-0.04096554	-0.03986776	-0.000506947	0.7022365	-0.70876884	2.3717921e-05	-0.7048202	0.7068406	6.1488436e-06	-0.18406695	-0.009037884	-0.005722075	-0.10606659	0.10606659	0	NaN	NaN	NaN	NaN	NaN	NaN	0	1e-07
0	-0.042522524	-0.03857549	-0.0005018774	0.702224	-0.70874625	2.3657134e-05	-0.70484656	0.7068361	6.082416e-06	-0.1878402	-0.0055322926	-0.0056650382	-0.11030935	0.11030935	0	NaN	NaN	NaN	NaN	NaN	NaN	0	1e-07
0	-0.0440605	-0.0372586	-0.00049717876	0.702212	-0.7087225	2.3741497e-05	-0.7048718	0.70683223	6.040466e-06	-0.19139656	-0.0017890738	-0.00561227	-0.11455149	0.11455149	0	NaN	NaN	NaN	NaN	NaN	NaN	0	1e-07
0	-0.044998057	-0.035309494	-0.000570806	0.7022177	-0.7086781	3.396272e-05	-0.7048728	0.70685226	8.102646e-06	-0.18828453	0.008954074	-0.0064496566	-0.118793555	0.118793555	0	NaN	NaN	NaN	NaN	NaN	NaN	0	1e-07
0	-0.046556644	-0.034009643	-0.00056406786	0.7022042	-0.70865417	3.381023e-05	-0.7048989	0.7068471	7.9994215e-06	-0.19204813	0.012423953	-0.006373765	-0.12303616	0.12303616	0	NaN	NaN	NaN	NaN	NaN	NaN	0	1e-07
0	-0.048115987	-0.03270404	-0.0005572479	0.7021905	-0.7086296	3.3656568e-05	-0.70492476	0.7068416	7.896877e-06	-0.19580086	0.015904006	-0.006296953	-0.12727837	0.12727837	0	NaN	NaN	NaN	NaN	NaN	NaN	0	1e-07
0	-0.049675804	-0.03138944	-0.000550362	0.70217633	-0.7086045	3.3500422e-05	-0.70495075	0.70683587	7.793416e-06	-0.19952857	0.019411497	-0.0062194397	-0.1315224	0.1315224	0	NaN	NaN	NaN	NaN	NaN	NaN	0	1e-07
0	-0.047297962	0.06270856	-0.00057322043	0.7020856	-0.7086588	3.388037e-05	-0.7050301	0.7067373	7.829375e-06	-0.17708874	0.04851924	-0.006475039	-0.1357649	0.1357649	0	NaN	NaN	NaN	NaN	NaN	NaN	0	1e-07
0	-0.048791613	0.06395224	-0.0005650358	0.70207125	-0.7086323	3.3699907e-05	-0.70505095	0.70673674	7.720366e-06	-0.18104573	0.05181116	-0.006382893	-0.14000703	0.14000703	0	NaN	NaN	NaN	NaN	NaN	NaN	0	1e-07
0	-0.050279222	0.06520208	-0.00055663474	0.7020565	-0.708605	3.3514487e-05	-0.70507133	0.7067362	7.61089e-06	-0.1849511	0.05514871	-0.0062883063	-0.14424916	0.14424916	0	NaN	NaN	NaN	NaN	NaN	NaN	0	1e-07
0	-0.05175964	0.06645939	-0.0005480427	0.7020417	-0.7085769	3.3323646e-05	-0.70509136	0.70673585	7.500038e-06	-0.18879177	0.058545675	-0.0061915666	-0.14849167	0.14849167	0	NaN	NaN	NaN	NaN	NaN	NaN	0	1e-07
0	-0.053277608	0.06768135	-0.0005359058	0.7020258	-0.70854867	3.3102053e-05	-0.70511144	0.70673496	7.3801275e-06	-0.19306414	0.061522305	-0.0060550985	-0.15273523	0.15273523	0	NaN	NaN	NaN	NaN	NaN	NaN	0	1e-07
0	-0.054750975	0.06894577	-0.0005275734	0.7020101	-0.70851916	3.290305e-05	-0.70513093	0.70673454	7.2686e-06	-0.19685471	0.064948246	-0.005961249	-0.15697764	0.15697764	0	NaN	NaN	NaN	NaN	NaN	NaN	0	1e-07
0	-0.056226254	0.07020932	-0.0005192036	0.7019939	-0.708489	3.2701388e-05	-0.70515025	0.70673406	7.157931e-06	-0.2006799	0.06833781	-0.005866976	-0.16121967	0.16121967	0	NaN	NaN	NaN	NaN	NaN	NaN	0	1e-07
0	-0.057707313	0.07146862	-0.0005107921	0.70197695	-0.7084581	3.2502878e-05	-0.70516956	0.7067332	7.048791e-06	-0.20458215	0.07165259	-0.005772242	-0.16546357	0.16546357	0	NaN	NaN	NaN	NaN	NaN	NaN	0	1e-07
0	-0.05921364	0.072705336	-0.0005021589	0.701959	-0.7084272	3.2322e-05	-0.7051895	0.7067315	6.942755e-06	-0.20877703	0.07468729	-0.0056750346	-0.16970597	0.16970597	0	NaN	NaN	NaN	NaN	NaN	NaN	0	1e-07
0	-0.060691357	0.07397145	-0.000494042	0.7019411	-0.7083948	3.2143078e-05	-0.7052085	0.7067306	6.837864e-06	-0.21266577	0.07802031	-0.0055836155	-0.17394815	0.17394815	0	NaN	NaN	NaN	NaN	NaN	NaN	0	1e-07
0	-0.062155034	0.075252555	-0.00048592428	0.70192295	-0.7083611	3.196433e-05	-0.7052267	0.7067301	6.7337733e-06	-0.21641003	0.08148995	-0.0054921973	-0.1781916	0.1781916	0	NaN	NaN	NaN	NaN	NaN	NaN	0	1e-07
0	-0.063627206	0.07652647	-0.00047782226	0.70190406	-0.70832646	3.1791827e-05	-0.7052447	0.7067297	6.63155e-06	-0.22025886	0.0848472	-0.0054009673	-0.18243395	0.18243395	0	NaN	NaN	NaN	NaN	NaN	NaN	0	1e-07
0	-0.06510313	0.07779871	-0.00046991292	0.7018844	-0.70829093	3.1629275e-05	-0.7052625	0.7067293	6.5323634e-06	-0.22415882	0.08815259	-0.0053119133	-0.18667604	0.18667604	0	NaN	NaN	NaN	NaN	NaN	NaN	0	1e-07
0	-0.06658429	0.07906814	-0.0004622301	0.7018641	-0.7082544	3.1479183e-05	-0.7052801	0.7067287	6.436073e-06	-0.2281255	0.09139236	-0.0052254177	-0.19091812	0.19091812	0	NaN	NaN	NaN	NaN	NaN	NaN	0	1e-07
0	-0.06806753	0.080338314	-0.00045457217	0.7018431	-0.7082168	3.134314e-05	-0.70529735	0.7067282	6.3424895e-06	-0.23212305	0.09460479	-0.0051392186	-0.1951605	0.1951605	0	NaN	NaN	NaN	NaN	NaN	NaN	0	1e-07
0	-0.06970369	0.08146007	-0.0004474976	0.70181876	-0.7081804	3.121219e-05	-0.705316	0.7067263	6.2519343e-06	-0.23782599	0.09611953	-0.0050595608	-0.19940366	0.19940366	0	NaN	NaN	NaN	NaN	NaN	NaN	0	1e-07
0	-0.07116384	0.08275746	-0.0004402402	0.70179665	-0.7081398	3.113077e-05	-0.7053324	0.7067262	6.1690275e-06	-0.24157755	0.09955959	-0.004977913	-0.20364597	0.20364597	0	NaN	NaN	NaN	NaN	NaN	NaN	0	1e-07
0	-0.072622985	0.08405989	-0.00043341974	0.70177376	-0.70809764	3.1102732e-05	-0.7053486	0.70672625	6.096811e-06	-0.24531868	0.103013925	-0.0049012327	-0.20788802	0.20788802	0	NaN	NaN	NaN	NaN	NaN	NaN	0	1e-07
0	-0.074081674	0.08536869	-0.000427673	0.70175	-0.7080538	3.1200798e-05	-0.7053644	0.7067264	6.046228e-06	-0.24904558	0.10649235	-0.0048368364	-0.21213318	0.21213318	0	NaN	NaN	NaN	NaN	NaN	NaN	0	1e-07
0	-0.07545886	0.08696083	-0.0004770004	0.70173204	-0.7080008	3.900937e-05	-0.7053746	0.70673203	7.317427e-06	-0.25106475	0.111772805	-0.005398434	-0.21637549	0.21637549	0	NaN	NaN	NaN	NaN	NaN	NaN	0	1e-07
0	-0.20273194	0.21441106	-0.0004684133	0.70173216	-0.7079205	3.8918577e-05	-0.70524657	0.7068769	7.208807e-06	-0.25669232	0.114479385	-0.0053014806	-0.2206187	0.2206187	0	NaN	NaN	NaN	NaN	NaN	NaN	0	1e-07
0	-0.20418513	0.21571746	-0.0004606929	0.7017042	-0.70787233	3.8871967e-05	-0.7052627	0.70687604	7.1138334e-06	-0.26055938	0.117791705	-0.005214616	-0.2248607	0.2248607	0	NaN	NaN	NaN	NaN	NaN	NaN	0	1e-07
0	-0.20549822	0.21720761	-0.00052049983	0.7016847	-0.7078113	4.7502886e-05	-0.70527315	0.7068808	8.466918e-06	-0.26288515	0.12310901	-0.005894755	-0.22910298	0.22910298	0	NaN	NaN	NaN	NaN	NaN	NaN	0	1e-07
0	-0.20694333	0.21852894	-0.00051479787	0.7016538	-0.7077589	4.7755406e-05	-0.70528865	0.7068802	8.399065e-06	-0.26668438	0.12651005	-0.0058308123	-0.23334505	0.23334505	0	NaN	NaN	NaN	NaN	NaN	NaN	0	1e-07
0	-0.20877963	0.21944535	-0.00049848045	0.70160717	-0.7077204	4.78736e-05	-0.70531607	0.70686764	8.296348e-06	-0.27483132	0.12535766	-0.005647471	-0.23758711	0.23758711	0	NaN	NaN	NaN	NaN	NaN	NaN	0	1e-07
0	-0.21022081	0.2207753	-0.00049208273	0.70157176	-0.7076638	4.811831e-05	-0.705331	0.7068673	8.209846e-06	-0.2786002	0.12876518	-0.005575654	-0.2418294	0.2418294	0	NaN	NaN	NaN	NaN	NaN	NaN	0	1e-07
0	-0.21166459	0.22211061	-0.00048870186	0.701534	-0.70760477	4.8695343e-05	-0.7053458	0.70686704	8.170707e-06	-0.28240296	0.1321827	-0.005538061	-0.24607232	0.24607232	0	NaN	NaN	NaN	NaN	NaN	NaN	0	1e-07
0	-0.21290976	0.22371146	-0.0005871003	0.701508	-0.7075263	6.121561e-05	-0.70535284	0.7068742	1.0032941e-05	-0.28400987	0.13850094	-0.0066556004	-0.2503146	0.2503146	0	NaN	NaN	NaN	NaN	NaN	NaN	0	1e-07
0	-0.21433735	0.22506143	-0.00057627656	0.70146203	-0.70746195	6.187258e-05	-0.70536697	0.70687413	9.88633e-06	-0.28764278	0.14197999	-0.0065340367	-0.25455675	0.25455675	0	NaN	NaN	NaN	NaN	NaN	NaN	0	1e-07
0	-0.21576881	0.22641318	-0.00056547154	0.70140976	-0.7073946	6.317217e-05	-0.70538104	0.70687395	9.738587e-06	-0.29131508	0.14542338	-0.006413039	-0.25880256	0.25880256	0	NaN	NaN	NaN	NaN	NaN	NaN	0	1e-07
0	-0.28322047	0.29335916	-0.00055510015	0.70114547	-0.7075086	6.865666e-05	-0.70563674	0.7066392	9.570629e-06	-0.29912505	0.1449318	-0.0062989076	-0.2630448	0.2630448	0	NaN	NaN	NaN	NaN	NaN	NaN	0	1e-07
0	-0.28472182	0.2949913	-0.00054405734	0.6984922	-0.7028477	6.4239604e-05	-0.70564103	0.70664847	9.441792e-06	-0.30235347	0.14892754	-0.0061722714	-0.26728776	0.26728776	0	NaN	NaN	NaN	NaN	NaN	NaN	0	1e-07
0	-0.2864463	0.29613945	-0.0006333343	0.69848055	-0.70269054	6.680938e-05	-0.70565623	0.7066465	9.7785205e-06	-0.3093604	0.14965364	-0.007176393	-0.2715298	0.2715298	0	NaN	NaN	NaN	NaN	NaN	NaN	0	1e-07
0	-0.287839	0.29755145	-0.0006216838	0.6984734	-0.7025179	6.781768e-05	-0.7056679	0.706648	9.628159e-06	-0.31278428	0.15335898	-0.0070457617	-0.27577206	0.27577206	0	NaN	NaN	NaN	NaN	NaN	NaN	0	1e-07
0	-0.2892328	0.2989693	-0.0006096137	0.6984648	-0.70233375	6.9643815e-05	-0.7056795	0.70664954	9.477293e-06	-0.31624344	0.1570611	-0.006910867	-0.28001407	0.28001407	0	NaN	NaN	NaN	NaN	NaN	NaN	0	1e-07
0	-0.2904502	0.30059668	-0.0006050607	0.6984593	-0.7021245	7.3627445e-05	-0.7056886	0.7066532	9.337715e-06	-0.31776488	0.16302997	-0.006861249	-0.2842561	0.2842561	0	NaN	NaN	NaN	NaN	NaN	NaN	0	1e-07
0	-0.35015926	0.37511173	-0.00057742593	-0.70850646	0.7041659	3.68111e-05	-0.70784104	0.7045066	9.34258e-06	-0.23759104	0.25439888	-0.006526928	-0.2884983	0.2884983	0	NaN	NaN	NaN	NaN	NaN	NaN	0	1e-07
0	-0.3506752	0.3774411	-0.00062104943	-0.70847815	0.70420396	3.7023343e-05	-0.70783395	0.70452625	9.437187e-06	-0.2313624	0.26823747	-0.007016412	-0.2927411	0.2927411	0	NaN	NaN	NaN	NaN	NaN	NaN	0	1e-07
0	-0.41782317	0.44411427	-0.0006068756	-0.7085068	0.70418537	3.62568e-05	-0.70775026	0.70462626	9.253465e-06	-0.2392604	0.26804596	-0.006855997	-0.29698333	0.29698333	0	NaN	NaN	NaN	NaN	NaN	NaN	0	1e-07
0	-0.4192302	0.4455085	-0.0005970941	-0.7084911	0.7042104	3.5757592e-05	-0.7077552	0.70463365	9.112317e-06	-0.24288175	0.27149713	-0.0067456216	-0.30122533	0.30122533	0	NaN	NaN	NaN	NaN	NaN	NaN	0	1e-07
0	-0.42063257	0.44691217	-0.0005883511	-0.7084755	0.7042354	3.5276105e-05	-0.70776	0.7046411	8.976182e-06	-0.24646147	0.27499834	-0.0066469116	-0.30547047	0.30547047	0	NaN	NaN	NaN	NaN	NaN	NaN	0	1e-07
0	-0.42196253	0.4484491	-0.00075961335	-0.70845765	0.7042625	3.65218e-05	-0.7077627	0.7046503	9.538105e-06	-0.24924836	0.2799329	-0.008569098	-0.30971262	0.30971262	0	NaN	NaN	NaN	NaN	NaN	NaN	0	1e-07
0	-0.42335653	0.4498648	-0.00074597116	-0.70844185	0.7042873	3.6023335e-05	-0.7077671	0.7046578	9.389431e-06	-0.25275585	0.28345844	-0.008415462	-0.31395528	0.31395528	0	NaN	NaN	NaN	NaN	NaN	NaN	0	1e-07
0	-0.42474884	0.45128718	-0.00073304784	-0.70842606	0.7043121	3.554872e-05	-0.70777136	0.7046653	9.247131e-06	-0.2562536	0.28700268	-0.0082699265	-0.31819725	0.31819725	0	NaN	NaN	NaN	NaN	NaN	NaN	0	1e-07
0	-0.42335612	0.44986522	-0.0007460028	-0.70844185	0.7042873	3.6024696e-05	-0.7077671	0.7046578	9.389739e-06	-0.25275132	0.28346318	-0.008415819	-0.31395528	0.31395528	0	NaN	NaN	NaN	NaN	NaN	NaN	0	1e-07
0	-0.42196178	0.44844985	-0.00075963076	-0.7084576	0.7042625	3.652405e-05	-0.7077627	0.70465034	9.538362e-06	-0.24924031	0.27994108	-0.008569296	-0.30971262	0.30971262	0	NaN	NaN	NaN	NaN	NaN	NaN	0	1e-07
0	-0.4205654	0.44704112	-0.00077371806	-0.7084732	0.7042376	3.7040147e-05	-0.7077582	0.70464283	9.691368e-06	-0.24571598	0.27643856	-0.008727952	-0.30547047	0.30547047	0	NaN	NaN	NaN	NaN	NaN	NaN	0	1e-07
0	-0.41916665	0.44563916	-0.00078815385	-0.70848906	0.7042126	3.7571266e-05	-0.7077535	0.7046354	9.848055e-06	-0.24217662	0.27295566	-0.0088905385	-0.30122533	0.30122533	0	NaN	NaN	NaN	NaN	NaN	NaN	0	1e-07
0	-0.41776544	0.44424382	-0.0008028703	-0.7085047	0.7041875	3.8113405e-05	-0.7077488	0.7046279	1.0007864e-05	-0.23862043	0.26949278	-0.009056288	-0.29698333	0.29698333	0	NaN	NaN	NaN	NaN	NaN	NaN	0	1e-07
0	-0.41636202	0.44285488	-0.0008178192	-0.7085205	0.70416236	3.8667084e-05	-0.7077437	0.7046204	1.017028e-05	-0.23504971	0.2660463	-0.00922466	-0.2927411	0.2927411	0	NaN	NaN	NaN	NaN	NaN	NaN	0	1e-07
0	-0.41495627	0.4414723	-0.0008329672	-0.7085361	0.7041371	3.9228482e-05	-0.7077385	0.70461303	1.0334817e-05	-0.23146348	0.26261598	-0.009395275	-0.2884983	0.2884983	0	NaN	NaN	NaN	NaN	NaN	NaN	0	1e-07
0	-0.41354814	0.44009593	-0.00084828894	-0.70855176	0.7041118	3.9796534e-05	-0.7077333	0.70460564	1.05012305e-05	-0.22786117	0.25920126	-0.009567848	-0.2842561	0.2842561	0	NaN	NaN	NaN	NaN	NaN	NaN	0	1e-07
0	-0.41213748	0.43872568	-0.0008637638	-0.7085675	0.7040862	4.0369323e-05	-0.70772785	0.70459825	1.0668569e-05	-0.22424258	0.2558011	-0.0097421445	-0.28001407	0.28001407	0	NaN	NaN	NaN	NaN	NaN	NaN	0	1e-07
0	-0.41072458	0.43736133	-0.00087937276	-0.70858324	0.7040606	4.0944607e-05	-0.7077222	0.7045908	1.0836411e-05	-0.22060885	0.25241348	-0.0099179465	-0.27577206	0.27577206	0	NaN	NaN	NaN	NaN	NaN	NaN	0	1e-07
0	-0.40930927	0.43600267	-0.00089509954	-0.70859903	0.7040349	4.1520976e-05	-0.7077164	0.7045834	1.1005975e-05	-0.2169595	0.24903753	-0.010095074	-0.2715298	0.2715298	0	NaN	NaN	NaN	NaN	NaN	NaN	0	1e-07
0	-0.40789163	0.43464965	-0.0009109286	-0.7086148	0.70400906	4.209595e-05	-0.70771044	0.7045761	1.1175278e-05	-0.21329488	0.24567202	-0.010273346	-0.26728776	0.26728776	0	NaN	NaN	NaN	NaN	NaN	NaN	0	1e-07
0	-0.40647182	0.43330184	-0.0009268449	-0.7086307	0.703983	4.2668507e-05	-0.70770437	0.7045686	1.1344015e-05	-0.2096167	0.24231383	-0.010452595	-0.2630448	0.2630448	0	NaN	NaN	NaN	NaN	NaN	NaN	0	1e-07
0	-0.40504956	0.43195903	-0.000942835	-0.70864654	0.70395684	4.3234828e-05	-0.70769817	0.7045613	1.1512521e-05	-0.2059234	0.23896328	-0.010632666	-0.25880256	0.25880256	0	NaN	NaN	NaN	NaN	NaN	NaN	0	1e-07
0	-0.40362495	0.4306212	-0.00095888576	-0.70866245	0.70393044	4.379244e-05	-0.70769167	0.70455384	1.1679084e-05	-0.20221442	0.23561959	-0.010813406	-0.25455675	0.25455675	0	NaN	NaN	NaN	NaN	NaN	NaN	0	1e-07
0	-0.40219805	0.42928794	-0.00097498414	-0.70867854	0.7039039	4.4340537e-05	-0.7076851	0.70454645	1.1843773e-05	-0.19849138	0.23227967	-0.010994668	-0.2503146	0.2503146	0	NaN	NaN	NaN	NaN	NaN	NaN	0	1e-07
0	-0.40076888	0.42795914	-0.0009911222	-0.7086946	0.7038772	4.4873526e-05	-0.7076785	0.7045391	1.2005821e-05	-0.19475326	0.2289431	-0.011176361	-0.24607232	0.24607232	0	NaN	NaN	NaN	NaN	NaN	NaN	0	1e-07
0	-0.3993377	0.4266342	-0.0010072952	-0.70871085	0.7038502	4.5390847e-05	-0.7076715	0.7045315	1.2165081e-05	-0.19100527	0.22560377	-0.011358429	-0.2418294	0.2418294	0	NaN	NaN	NaN	NaN	NaN	NaN	0	1e-07
0	-0.3979058	0.42531186	-0.0010235045	-0.7087271	0.70382303	4.5891036e-05	-0.70766455	0.7045241	1.232224e-05	-0.18725957	0.22224948	-0.0115408925	-0.23758711	0.23758711	0	NaN	NaN	NaN	NaN	NaN	NaN	0	1e-07
0	-0.39647484	0.42399016	-0.0010397476	-0.7087435	0.7037956	4.6373367e-05	-0.7076576	0.7045164	1.2477327e-05	-0.18353683	0.2188602	-0.011723727	-0.23334505	0.23334505	0	NaN	NaN	NaN	NaN	NaN	NaN	0	1e-07
0	-0.39504692	0.42266724	-0.0010560042	-0.7087601	0.703768	4.683795e-05	-0.7076504	0.70450854	1.2631989e-05	-0.17985818	0.21541478	-0.0119067095	-0.22910298	0.22910298	0	NaN	NaN	NaN	NaN	NaN	NaN	0	1e-07
0	-0.393624	0.42134053	-0.0010721966	-0.7087769	0.70373994	4.72879e-05	-0.7076434	0.7045007	1.278589e-05	-0.17624825	0.21188644	-0.01208897	-0.2248607	0.2248607	0	NaN	NaN	NaN	NaN	NaN	NaN	0	1e-07
0	-0.39236802	0.4198215	-0.00109261	-0.7087963	0.703709	4.7724472e-05	-0.70763844	0.7044903	1.2950603e-05	-0.17450354	0.20616764	-0.012318578	-0.2206187	0.2206187	0	NaN	NaN	NaN	NaN	NaN	NaN	0	1e-07
0	-0.39092985	0.4185158	-0.0011095739	-0.708813	0.7036809	4.8221737e-05	-0.7076309	0.70448244	1.311587e-05	-0.17074732	0.2027949	-0.012509531	-0.21637549	0.21637549	0	NaN	NaN	NaN	NaN	NaN	NaN	0	1e-07
0	-0.38948363	0.41722	-0.0011265997	-0.70882946	0.70365274	4.875467e-05	-0.707623	0.7044747	1.3287532e-05	-0.16691452	0.19949463	-0.012701209	-0.21213318	0.21213318	0	NaN	NaN	NaN	NaN	NaN	NaN	0	1e-07
0	-0.38803095	0.41593215	-0.0011436363	-0.70884585	0.7036246	4.9314e-05	-0.7076148	0.70446706	1.3463297e-05	-0.16302252	0.19624706	-0.012893028	-0.20788802	0.20788802	0	NaN	NaN	NaN	NaN	NaN	NaN	0	1e-07
0	-0.38657078	0.41465282	-0.0011605927	-0.7088622	0.70359635	4.989235e-05	-0.70760626	0.7044596	1.3643208e-05	-0.15906014	0.19305861	-0.013083963	-0.20364597	0.20364597	0	NaN	NaN	NaN	NaN	NaN	NaN	0	1e-07
0	-0.38500172	0.41347048	-0.0011773321	-0.70887727	0.70356935	5.0499704e-05	-0.7075962	0.7044533	1.3827081e-05	-0.15390055	0.19091997	-0.013272494	-0.19940366	0.19940366	0	NaN	NaN	NaN	NaN	NaN	NaN	0	1e-07
0	-0.3835305	0.41220477	-0.0011949457	-0.7088935	0.703541	5.1100484e-05	-0.70758706	0.704446	1.4011433e-05	-0.14984061	0.18781513	-0.013470802	-0.1951605	0.1951605	0	NaN	NaN	NaN	NaN	NaN	NaN	0	1e-07
0	-0.3820539	0.41094533	-0.0012125246	-0.70890975	0.70351243	5.170977e-05	-0.70757765	0.70443875	1.4197336e-05	-0.14573494	0.18474683	-0.01366873	-0.19091812	0.19091812	0	NaN	NaN	NaN	NaN	NaN	NaN	0	1e-07
0	-0.3805757	0.40968838	-0.0012300303	-0.70892596	0.7034837	5.2322524e-05	-0.707568	0.7044314	1.4383582e-05	-0.14162529	0.18167435	-0.013865835	-0.18667604	0.18667604	0	NaN	NaN	NaN	NaN	NaN	NaN	0	1e-07
0	-0.37909833	0.4084315	-0.0012474271	-0.70894235	0.70345473	5.2940155e-05	-0.70755833	0.7044241	1.4570762e-05	-0.1375379	0.1785724	-0.014061722	-0.18243395	0.18243395	0	NaN	NaN	NaN	NaN	NaN	NaN	0	1e-07
0	-0.37762168	0.4071746	-0.0012646948	-0.70895886	0.7034256	5.356257e-05	-0.7075484	0.7044165	1.4758675e-05	-0.13347404	0.17543961	-0.014256164	-0.1781916	0.1781916	0	NaN	NaN	NaN	NaN	NaN	NaN	0	1e-07
0	-0.3761449	0.40591854	-0.0012818219	-0.7089754	0.703396	5.418699e-05	-0.7075383	0.70440894	1.4945725e-05	-0.12942216	0.17228696	-0.014449024	-0.17394815	0.17394815	0	NaN	NaN	NaN	NaN	NaN	NaN	0	1e-07
0	-0.3746667	0.40466422	-0.0012987949	-0.70899206	0.7033663	5.4813223e-05	-0.7075282	0.7044013	1.5133841e-05	-0.12536938	0.16912642	-0.014640157	-0.16970597	0.16970597	0	NaN	NaN	NaN	NaN	NaN	NaN	0	1e-07
0	-0.3731872	0.40341154	-0.0013155872	-0.7090089	0.7033364	5.543807e-05	-0.7075178	0.70439357	1.5320415e-05	-0.12131775	0.16595598	-0.014829259	-0.16546357	0.16546357	0	NaN	NaN	NaN	NaN	NaN	NaN	0	1e-07
0	-0.37170774	0.40215907	-0.0013321714	-0.70902574	0.70330614	5.6059118e-05	-0.7075072	0.70438576	1.5505697e-05	-0.11728191	0.16276151	-0.015016014	-0.16121967	0.16121967	0	NaN	NaN	NaN	NaN	NaN	NaN	0	1e-07
0	-0.3702285	0.4009066	-0.0013485487	-0.70904267	0.7032756	5.6675413e-05	-0.7074965	0.70437783	1.5689597e-05	-0.113263845	0.15954073	-0.01520044	-0.15697764	0.15697764	0	NaN	NaN	NaN	NaN	NaN	NaN	0	1e-07
0	-0.36874846	0.39965472	-0.0013647436	-0.70905983	0.70324475	5.7281075e-05	-0.7074856	0.7043698	1.5870726e-05	-0.10925289	0.1563024	-0.015382811	-0.15273523	0.15273523	0	NaN	NaN	NaN	NaN	NaN	NaN	0	1e-07
0	-0.36726677	0.398404	-0.0013807828	-0.7090772	0.70321363	5.7870882e-05	-0.70747465	0.7043617	1.6049427e-05	-0.10524021	0.15305243	-0.015563419	-0.14849167	0.14849167	0	NaN	NaN	NaN	NaN	NaN	NaN	0	1e-07
0	-0.36578426	0.39715305	-0.0013966847	-0.7090946	0.70318216	5.8427704e-05	-0.70746356	0.70435333	1.6221606e-05	-0.101234995	0.14977734	-0.015742453	-0.14424916	0.14424916	0	NaN	NaN	NaN	NaN	NaN	NaN	0	1e-07
0	-0.3643142	0.39588675	-0.0014124104	-0.7091128	0.70314974	5.8819707e-05	-0.7074529	0.7043443	1.637021e-05	-0.09738458	0.14630796	-0.015919404	-0.14000703	0.14000703	0	NaN	NaN	NaN	NaN	NaN	NaN	0	1e-07
0	-0.36291295	0.39453867	-0.0014273331	-0.7091343	0.7031137	5.855098e-05	-0.70744514	0.7043318	1.6424541e-05	-0.09431459	0.14190878	-0.016086942	-0.1357649	0.1357649	0	NaN	NaN	NaN	NaN	NaN	NaN	0	1e-07
0	-0.36143512	0.39327887	-0.0014426239	-0.70915246	0.7030809	5.9056583e-05	-0.70743376	0.704323	1.6588629e-05	-0.09041378	0.1384688	-0.016259093	-0.1315224	0.1315224	0	NaN	NaN	NaN	NaN	NaN	NaN	0	1e-07
0	-0.35998333	0.39199024	-0.0014574653	-0.7091715	0.70304704	5.953993e-05	-0.7074231	0.7043131	1.6749138e-05	-0.08681941	0.1346879	-0.016426207	-0.12727837	0.12727837	0	NaN	NaN	NaN	NaN	NaN	NaN	0	1e-07
0	-0.3585168	0.39071494	-0.0014720671	-0.70919025	0.70301324	6.006e-05	-0.7074115	0.7043036	1.6912145e-05	-0.08308067	0.1310355	-0.01659063	-0.12303616	0.12303616	0	NaN	NaN	NaN	NaN	NaN	NaN	0	1e-07
0	-0.3569553	0.38952786	-0.0014887077	-0.7092075	0.70298094	6.063941e-05	-0.70739806	0.70429593	1.7085116e-05	-0.078304574	0.12834893	-0.016777907	-0.118793555	0.118793555	0	NaN	NaN	NaN	NaN	NaN	NaN	0	1e-07
0	-0.35550347	0.3882341	-0.0015013546	-0.7092267	0.70294625	6.1146566e-05	-0.70738626	0.7042861	1.7238339e-05	-0.07476696	0.12445243	-0.01692038	-0.11455149	0.11455149	0	NaN	NaN	NaN	NaN	NaN	NaN	0	1e-07
0	-0.35395345	0.38703957	-0.0015148222	-0.7092438	0.70291376	6.1683175e-05	-0.7073714	0.70427907	1.7391427e-05	-0.070160046	0.12164609	-0.017071994	-0.11030935	0.11030935	0	NaN	NaN	NaN	NaN	NaN	NaN	0	1e-07
0	-0.35243142	0.38581634	-0.0015271021	-0.70926136	0.70288044	6.2219486e-05	-0.70735687	0.7042714	1.7542077e-05	-0.06588378	0.118501745	-0.017210286	-0.10606659	0.10606659	0	NaN	NaN	NaN	NaN	NaN	NaN	0	1e-07
0	-0.35089913	0.38460538	-0.0015391934	-0.7092789	0.70284706	6.2772204e-05	-0.70734227	0.7042634	1.7697343e-05	-0.06151379	0.11547823	-0.017346479	-0.10182299	0.10182299	0	NaN	NaN	NaN	NaN	NaN	NaN	0	1e-07
0	-0.34939677	0.383363	-0.0015504287	-0.70929706	0.7028127	6.3326785e-05	-0.70732796	0.70425475	1.7852164e-05	-0.05749723	0.112088405	-0.017473087	-0.09758025	0.09758025	0	NaN	NaN	NaN	NaN	NaN	NaN	0	1e-07
0	-0.34789634	0.3821184	-0.0015610274	-0.70931554	0.70277786	6.3850355e-05	-0.70731384	0.7042456	1.8000525e-05	-0.053523555	0.108660154	-0.017592534	-0.09333802	0.09333802	0	NaN	NaN	NaN	NaN	NaN	NaN	0	1e-07
0	-0.3463608	0.38090923	-0.001571706	-0.7093331	0.7027437	6.4417e-05	-0.70729834	0.70423746	1.8152676e-05	-0.049182583	0.10561277	-0.017712863	-0.0890958	0.0890958	0	NaN	NaN	NaN	NaN	NaN	NaN	0	1e-07
0	-0.3448188	0.37970486	-0.0015819718	-0.70935065	0.7027094	6.498892e-05	-0.70728236	0.7042293	1.8304087e-05	-0.044792164	0.10260547	-0.017828552	-0.084852986	0.084852986	0	NaN	NaN	NaN	NaN	NaN	NaN	0	1e-07
0	-0.3432732	0.37850255	-0.0015918115	-0.7093682	0.7026747	6.557364e-05	-0.70726633	0.7042207	1.8458808e-05	-0.040384572	0.09960887	-0.017939474	-0.080609836	0.080609836	0	NaN	NaN	NaN	NaN	NaN	NaN	0	1e-07
0	-0.34172705	0.3772995	-0.001601055	-0.70938605	0.70263976	6.616622e-05	-0.70725006	0.7042121	1.8614886e-05	-0.035994258	0.09659121	-0.01804373	-0.07636762	0.07636762	0	NaN	NaN	NaN	NaN	NaN	NaN	0	1e-07
0	-0.34018728	0.37608984	-0.0016098744	-0.70940393	0.70260423	6.676816e-05	-0.7072337	0.7042031	1.8772605e-05	-0.031699147	0.09348896	-0.018143253	-0.07212458	0.07212458	0	NaN	NaN	NaN	NaN	NaN	NaN	0	1e-07
0	-0.33865398	0.3748738	-0.0016185315	-0.70942205	0.7025684	6.737616e-05	-0.70721704	0.7041941	1.8930863e-05	-0.027499376	0.09030384	-0.018240977	-0.06788245	0.06788245	0	NaN	NaN	NaN	NaN	NaN	NaN	0	1e-07
0	-0.33715367	0.37362066	-0.0016262893	-0.70944077	0.70253175	6.797407e-05	-0.70720047	0.70418453	1.908569e-05	-0.023691094	0.086693086	-0.018328609	-0.06363919	0.06363919	0	NaN	NaN	NaN	NaN	NaN	NaN	0	1e-07
0	-0.3356334	0.37238392	-0.0016349445	-0.70945925	0.70249486	6.858755e-05	-0.7071832	0.70417506	1.9242756e-05	-0.019686518	0.083256654	-0.018426284	-0.059396777	0.059396777	0	NaN	NaN	NaN	NaN	NaN	NaN	0	1e-07
0	-0.33411208	0.37114465	-0.0016422435	-0.7094777	0.7024579	6.917174e-05	-0.7071654	0.7041659	1.9389578e-05	-0.015696798	0.079782434	-0.018508723	-0.055154674	0.055154674	0	NaN	NaN	NaN	NaN	NaN	NaN	0	1e-07
0	-0.33256575	0.36993223	-0.0016502816	-0.70949584	0.70242107	6.977798e-05	-0.70714694	0.7041567	1.954461e-05	-0.011455998	0.07660043	-0.018599479	-0.050911494	0.050911494	0	NaN	NaN	NaN	NaN	NaN	NaN	0	1e-07
0	-0.33105177	0.36868238	-0.0016572285	-0.70951474	0.70238304	7.037423e-05	-0.70712876	0.70414686	1.9695546e-05	-0.0076005594	0.07299163	-0.018678013	-0.04666901	0.04666901	0	NaN	NaN	NaN	NaN	NaN	NaN	0	1e-07
0	-0.3292654	0.36765483	-0.0016658443	-0.70952976	0.7023493	7.050597e-05	-0.7071013	0.70414567	1.9717512e-05	-0.0007509772	0.07185664	-0.018774655	-0.042426493	0.042426493	0	NaN	NaN	NaN	NaN	NaN	NaN	0	1e-07
0	-0.3276996	0.36645132	-0.0016715358	-0.7095482	0.70231116	7.096886e-05	-0.70708114	0.7041367	1.9827447e-05	0.0036234676	0.06875265	-0.018838868	-0.03818381	0.03818381	0	NaN	NaN	NaN	NaN	NaN	NaN	0	1e-07
0	-0.3261614	0.365218	-0.0016771485	-0.70956707	0.7022723	7.148387e-05	-0.70706135	0.7041267	1.9952526e-05	0.007662846	0.06530971	-0.018902304	-0.033941224	0.033941224	0	NaN	NaN	NaN	NaN	NaN	NaN	0	1e-07
0	-0.32460314	0.36400542	-0.0016834901	-0.70958585	0.7022334	7.2017705e-05	-0.707041	0.70411694	2.0084288e-05	0.011896118	0.062094014	-0.018973922	-0.029698389	0.029698389	0	NaN	NaN	NaN	NaN	NaN	NaN	0	1e-07
0	-0.3230685	0.36276436	-0.0016892735	-0.7096054	0.7021932	7.248536e-05	-0.7070211	0.70410603	2.0204598e-05	0.015837181	0.05855621	-0.01903926	-0.025455747	0.025455747	0	NaN	NaN	NaN	NaN	NaN	NaN	0	1e-07