# t (s)	mx ()	my ()	mz ()	m.region23x ()	m.region23y ()	m.region23z ()	m.region24x ()	m.region24y ()	m.region24z ()	m.region25x ()	m.region25y ()	m.region25z ()	B_extx (T)	B_exty (T)	B_extz (T)	B_eff.region6x (T)	B_eff.region6y (T)	B_eff.region6z (T)	B_eff.region9x (T)	B_eff.region9y (T)	B_eff.region9z (T)	step_x (No unit)	step_y (No unit)	points_TOP_wire (No unit)
0	0	-0.29382473	0	-1	-6.123238e-17	0	1	6.123238e-17	0	-6.123241e-17	-1	0	0	0	0	-0.50273454	-0.003739163	0.022951616	NaN	NaN	NaN	0	1e-07	162
0	0	-0.29382473	0	-1	-6.123238e-17	0	1	6.123238e-17	0	-6.123241e-17	-1	0	0	0	0	-0.45932418	-0.0038371491	0.019746799	NaN	NaN	NaN	6.1728396e-09	1e-07	162
0	0	-0.29382473	0	-1	-6.123238e-17	0	1	6.123238e-17	0	-6.12324e-17	-1	0	0	0	0	-0.42125702	-0.0039380603	0.017109016	NaN	NaN	NaN	1.2345679e-08	1e-07	162
0	0	-0.29382473	0	-1	-6.123238e-17	0	1	6.123238e-17	0	-6.123241e-17	-1	0	0	0	0	-0.38771972	-0.0040433663	0.014907235	NaN	NaN	NaN	1.8518518e-08	1e-07	162
0	0	-0.29382473	0	-1	-6.123238e-17	0	1	6.123238e-17	0	-6.12324e-17	-1	0	0	0	0	-0.35795608	-0.0041545103	0.013048727	NaN	NaN	NaN	2.4691358e-08	1e-07	162
0	0	-0.29382473	0	-1	-6.123238e-17	0	1	6.123238e-17	0	-6.12324e-17	-1	0	0	0	0	-0.33140704	-0.004273034	0.011470902	NaN	NaN	NaN	3.0864197e-08	1e-07	162
0	0	-0.29382473	0	-1	-6.123238e-17	0	1	6.123238e-17	0	-6.12324e-17	-1	0	0	0	0	-0.3077092	-0.004400431	0.010123845	NaN	NaN	NaN	3.7037037e-08	1e-07	162
0	0	-0.29382473	0	-1	-6.123238e-17	0	1	6.123238e-17	0	-6.12324e-17	-1	0	0	0	0	-0.28648424	-0.004538249	0.008966992	NaN	NaN	NaN	4.3209877e-08	1e-07	162
0	0	-0.29382473	0	-1	-6.123238e-17	0	1	6.123238e-17	0	-6.12324e-17	-1	0	0	0	0	-0.2674157	-0.0046879854	0.00796829	NaN	NaN	NaN	4.9382717e-08	1e-07	162
0	0	-0.29382473	0	-1	-6.123238e-17	0	1	6.123238e-17	0	-6.12324e-17	-1	0	0	0	0	-0.25023705	-0.0048511773	0.0071019875	NaN	NaN	NaN	5.5555557e-08	1e-07	162
0	0	-0.29382473	0	-1	-6.123238e-17	0	1	6.123238e-17	0	-6.12324e-17	-1	0	0	0	0	-0.23472326	-0.005029328	0.0063472087	NaN	NaN	NaN	6.172839e-08	1e-07	162
0	0	-0.29382473	0	-1	-6.123238e-17	0	1	6.123238e-17	0	-6.123241e-17	-1	0	0	0	0	-0.22068287	-0.0052239955	0.0056868256	NaN	NaN	NaN	6.790123e-08	1e-07	162
0	0	-0.29382473	0	-1	-6.123238e-17	0	1	6.123238e-17	0	-6.123241e-17	-1	0	0	0	0	-0.20795235	-0.0054367287	0.0051067197	NaN	NaN	NaN	7.407407e-08	1e-07	162
0	0	-0.29382473	0	-1	-6.123238e-17	0	1	6.123238e-17	0	-6.12324e-17	-1	0	0	0	0	-0.19639114	-0.00566915	0.0045951335	NaN	NaN	NaN	8.024691e-08	1e-07	162
0	0	-0.29382473	0	-1	-6.123238e-17	0	1	6.123238e-17	0	-6.12324e-17	-1	0	0	0	0	-0.18587829	-0.0059229257	0.004142263	NaN	NaN	NaN	8.641975e-08	1e-07	162
0	0	-0.29382473	0	-1	-6.123238e-17	0	1	6.123238e-17	0	-6.12324e-17	-1	0	0	0	0	-0.17630905	-0.006199823	0.0037398462	NaN	NaN	NaN	9.259259e-08	1e-07	162
0	0	-0.29382473	0	-1	-6.123238e-17	0	1	6.123238e-17	0	-6.123241e-17	-1	0	0	0	0	-0.16759221	-0.006501696	0.003380933	NaN	NaN	NaN	9.876543e-08	1e-07	162
0	0	-0.29382473	0	-1	-6.123238e-17	0	1	6.123238e-17	0	-6.12324e-17	-1	0	0	0	0	-0.15964866	-0.00683055	0.0030595995	NaN	NaN	NaN	1.0493827e-07	1e-07	162
0	0	-0.29382473	0	-1	-6.123238e-17	0	1	6.123238e-17	0	-6.12324e-17	-1	0	0	0	0	-0.15240891	-0.0071885437	0.0027708153	NaN	NaN	NaN	1.1111111e-07	1e-07	162
0	0	-0.29382473	0	-1	-6.123238e-17	0	1	6.123238e-17	0	-6.12324e-17	-1	0	0	0	0	-0.14581223	-0.007578008	0.0025102578	NaN	NaN	NaN	1.1728395e-07	1e-07	162
0	0	-0.29382473	0	-1	-6.123238e-17	0	1	6.123238e-17	0	-6.12324e-17	-1	0	0	0	0	-0.13980499	-0.00800151	0.0022742285	NaN	NaN	NaN	1.2345679e-07	1e-07	162
0	0	-0.29382473	0	-1	-6.123238e-17	0	1	6.123238e-17	0	-6.12324e-17	-1	0	0	0	0	-0.13434064	-0.008461851	0.0020595142	NaN	NaN	NaN	1.2962963e-07	1e-07	162
0	0	-0.29382473	0	-1	-6.123238e-17	0	1	6.123238e-17	0	-6.12324e-17	-1	0	0	0	0	-0.1293773	-0.008962132	0.0018633405	NaN	NaN	NaN	1.3580247e-07	1e-07	162
0	0	-0.29382473	0	-1	-6.123238e-17	0	1	6.123238e-17	0	-6.12324e-17	-1	0	0	0	0	-0.12487874	-0.0095057655	0.0016832742	NaN	NaN	NaN	1.419753e-07	1e-07	162
0	0	-0.29382473	0	-1	-6.123238e-17	0	1	6.123238e-17	0	-6.12324e-17	-1	0	0	0	0	-0.12081258	-0.010096556	0.001517196	NaN	NaN	NaN	1.4814815e-07	1e-07	162
0	0	-0.29382473	0	-1	-6.123238e-17	0	1	6.123238e-17	0	-6.12324e-17	-1	0	0	0	0	-0.11715031	-0.010738692	0.0013632174	NaN	NaN	NaN	1.5432099e-07	1e-07	162
0	0	-0.29382473	0	-1	-6.123238e-17	0	1	6.123238e-17	0	-6.12324e-17	-1	0	0	0	0	-0.113866754	-0.011436868	0.0012196812	NaN	NaN	NaN	1.6049383e-07	1e-07	162
0	0	-0.29382473	0	-1	-6.123238e-17	0	1	6.123238e-17	0	-6.12324e-17	-1	0	0	0	0	-0.11093989	-0.012196288	0.0010850888	NaN	NaN	NaN	1.6666667e-07	1e-07	162
0	0	-0.29382473	0	-1	-6.123238e-17	0	1	6.123238e-17	0	-6.12324e-17	-1	0	0	0	0	-0.10835001	-0.01302278	0.0009581093	NaN	NaN	NaN	1.728395e-07	1e-07	162
0	0	-0.29382473	0	-1	-6.123238e-17	0	1	6.123238e-17	0	-6.12324e-17	-1	0	0	0	0	-0.1060799	-0.013922814	0.0008375137	NaN	NaN	NaN	1.7901235e-07	1e-07	162
0	0	-0.29382473	0	-1	-6.123238e-17	0	1	6.123238e-17	0	-6.12324e-17	-1	0	0	0	0	-0.10411456	-0.014903661	0.00072219863	NaN	NaN	NaN	1.8518519e-07	1e-07	162
0	0	-0.29382473	0	-1	-6.123238e-17	0	1	6.123238e-17	0	-6.12324e-17	-1	0	0	0	0	-0.102440484	-0.015973406	0.00061111955	NaN	NaN	NaN	1.9135803e-07	1e-07	162
0	0	-0.29382473	0	-1	-6.123238e-17	0	1	6.123238e-17	0	-6.12324e-17	-1	0	0	0	0	-0.101045914	-0.017141132	0.0005033283	NaN	NaN	NaN	1.9753087e-07	1e-07	162
0	0	-0.29382473	0	-1	-6.123238e-17	0	1	6.123238e-17	0	-6.12324e-17	-1	0	0	0	0	-0.09992078	-0.018416967	0.0003979061	NaN	NaN	NaN	2.037037e-07	1e-07	162
0	0	-0.29382473	0	-1	-6.123238e-17	0	1	6.123238e-17	0	-6.12324e-17	-1	0	0	0	0	-0.09905554	-0.019812265	0.00029399683	NaN	NaN	NaN	2.0987655e-07	1e-07	162
0	0	-0.29382473	0	-1	-6.123238e-17	0	1	6.123238e-17	0	-6.12324e-17	-1	0	0	0	0	-0.09844227	-0.0213397	0.00019075687	NaN	NaN	NaN	2.1604939e-07	1e-07	162
0	0	-0.29382473	0	-1	-6.123238e-17	0	1	6.123238e-17	0	-6.12324e-17	-1	0	0	0	0	-0.09807312	-0.02301347	8.738313e-05	NaN	NaN	NaN	2.2222223e-07	1e-07	162
0	0	-0.29382473	0	-1	-6.123238e-17	0	1	6.123238e-17	0	-6.12324e-17	-1	0	0	0	0	-0.09794108	-0.024849404	-1.6931994e-05	NaN	NaN	NaN	2.2839507e-07	1e-07	162
0	0	-0.29382473	0	-1	-6.123238e-17	0	1	6.123238e-17	0	-6.12324e-17	-1	0	0	0	0	-0.098038904	-0.02686517	-0.00012296627	NaN	NaN	NaN	2.345679e-07	1e-07	162
0	0	-0.29382473	0	-1	-6.123238e-17	0	1	6.123238e-17	0	-6.12324e-17	-1	0	0	0	0	-0.0983593	-0.029080385	-0.00023150489	NaN	NaN	NaN	2.4074075e-07	1e-07	162
0	0	-0.29382473	0	-1	-6.123238e-17	0	1	6.123238e-17	0	-6.12324e-17	-1	0	0	0	0	-0.09889411	-0.031516876	-0.00034331717	NaN	NaN	NaN	2.4691357e-07	1e-07	162
0	0	-0.29382473	0	-1	-6.123238e-17	0	1	6.123238e-17	0	-6.123241e-17	-1	0	0	0	0	-0.09963394	-0.03419864	-0.00045918263	NaN	NaN	NaN	2.5308643e-07	1e-07	162
0	0	-0.29382473	0	-1	-6.123238e-17	0	1	6.123238e-17	0	-6.12324e-17	-1	0	0	0	0	-0.100567244	-0.03715211	-0.00057985337	NaN	NaN	NaN	2.5925925e-07	1e-07	162
0	0	-0.29382473	0	-1	-6.123238e-17	0	1	6.123238e-17	0	-6.12324e-17	-1	0	0	0	0	-0.10168039	-0.040406007	-0.000706082	NaN	NaN	NaN	2.654321e-07	1e-07	162
0	0	-0.29382473	0	-1	-6.123238e-17	0	1	6.123238e-17	0	-6.12324e-17	-1	0	0	0	0	-0.10295529	-0.043991294	-0.0008385754	NaN	NaN	NaN	2.7160493e-07	1e-07	162
0	0	-0.29382473	0	-1	-6.123238e-17	0	1	6.123238e-17	0	-6.12324e-17	-1	0	0	0	0	-0.10436947	-0.047940757	-0.000978008	NaN	NaN	NaN	2.777778e-07	1e-07	162
0	0	-0.29382473	0	-1	-6.123238e-17	0	1	6.123238e-17	0	-6.12324e-17	-1	0	0	0	0	-0.105894245	-0.052288473	-0.0011249718	NaN	NaN	NaN	2.839506e-07	1e-07	162
0	0	-0.29382473	0	-1	-6.123238e-17	0	1	6.123238e-17	0	-6.12324e-17	-1	0	0	0	0	-0.107493326	-0.057068605	-0.0012799622	NaN	NaN	NaN	2.9012347e-07	1e-07	162
0	0	-0.29382473	0	-1	-6.123238e-17	0	1	6.123238e-17	0	-6.123241e-17	-1	0	0	0	0	-0.10912075	-0.062313884	-0.0014433253	NaN	NaN	NaN	2.962963e-07	1e-07	162
0	0	-0.29382473	0	-1	-6.123238e-17	0	1	6.123238e-17	0	-6.12324e-17	-1	0	0	0	0	-0.11072022	-0.06805301	-0.0016152407	NaN	NaN	NaN	3.0246915e-07	1e-07	162
0	0	-0.29382473	0	-1	-6.123238e-17	0	1	6.123238e-17	0	-6.12324e-17	-1	0	0	0	0	-0.11222288	-0.07430732	-0.0017956485	NaN	NaN	NaN	3.0864197e-07	1e-07	162
0	0	-0.29382473	0	-1	-6.123238e-17	0	1	6.123238e-17	0	-6.12324e-17	-1	0	0	0	0	-0.113547556	-0.081086084	-0.0019842298	NaN	NaN	NaN	3.1481483e-07	1e-07	162
0	0	-0.29382473	0	-1	-6.123238e-17	0	1	6.123238e-17	0	-6.12324e-17	-1	0	0	0	0	-0.11460127	-0.08838111	-0.0021803498	NaN	NaN	NaN	3.2098765e-07	1e-07	162
0	0	-0.29382473	0	-1	-6.123238e-17	0	1	6.123238e-17	0	-6.12324e-17	-1	0	0	0	0	-0.11528332	-0.09616043	-0.0023830535	NaN	NaN	NaN	3.271605e-07	1e-07	162
0	0	-0.29382473	0	-1	-6.123238e-17	0	1	6.123238e-17	0	-6.12324e-17	-1	0	0	0	0	-0.11549085	-0.1043626	-0.0025910377	NaN	NaN	NaN	3.3333333e-07	1e-07	162
0	0	-0.29382473	0	-1	-6.123238e-17	0	1	6.123238e-17	0	-6.12324e-17	-1	0	0	0	0	-0.11512998	-0.11289482	-0.0028027054	NaN	NaN	NaN	3.395062e-07	1e-07	162
0	0	-0.29382473	0	-1	-6.123238e-17	0	1	6.123238e-17	0	-6.123241e-17	-1	0	0	0	0	-0.11412679	-0.12163398	-0.00301619	NaN	NaN	NaN	3.45679e-07	1e-07	162
0	0	-0.29382473	0	-1	-6.123238e-17	0	1	6.123238e-17	0	-6.12324e-17	-1	0	0	0	0	-0.112439	-0.13043506	-0.0032294805	NaN	NaN	NaN	3.5185184e-07	1e-07	162
0	0	-0.29382473	0	-1	-6.123238e-17	0	1	6.123238e-17	0	-6.12324e-17	-1	0	0	0	0	-0.11006272	-0.13914505	-0.0034404781	NaN	NaN	NaN	3.580247e-07	1e-07	162
0	0	-0.29382473	0	-1	-6.123238e-17	0	1	6.123238e-17	0	-6.12324e-17	-1	0	0	0	0	-0.107033096	-0.1476187	-0.00364716	NaN	NaN	NaN	3.6419752e-07	1e-07	162
0	0	-0.29382473	0	-1	-6.123238e-17	0	1	6.123238e-17	0	-6.12324e-17	-1	0	0	0	0	-0.10341632	-0.15573257	-0.0038476246	NaN	NaN	NaN	3.7037037e-07	1e-07	162
0	0	-0.29382473	0	-1	-6.123238e-17	0	1	6.123238e-17	0	-6.12324e-17	-1	0	0	0	0	-0.09929886	-0.1633933	-0.0040402412	NaN	NaN	NaN	3.765432e-07	1e-07	162
0	0	-0.29382473	0	-1	-6.123238e-17	0	1	6.123238e-17	0	-6.12324e-17	-1	0	0	0	0	-0.09477565	-0.17053877	-0.004223637	NaN	NaN	NaN	3.8271605e-07	1e-07	162
0	0	-0.29382473	0	-1	-6.123238e-17	0	1	6.123238e-17	0	-6.12324e-17	-1	0	0	0	0	-0.08993977	-0.177136	-0.004396789	NaN	NaN	NaN	3.8888888e-07	1e-07	162
0	0	-0.29382473	0	-1	-6.123238e-17	0	1	6.123238e-17	0	-6.12324e-17	-1	0	0	0	0	-0.08487596	-0.18317562	-0.0045589576	NaN	NaN	NaN	3.9506173e-07	1e-07	162
0	0	-0.29382473	0	-1	-6.123238e-17	0	1	6.123238e-17	0	-6.12324e-17	-1	0	0	0	0	-0.07965731	-0.18866563	-0.004709719	NaN	NaN	NaN	4.0123456e-07	1e-07	162
0	0	-0.29382473	0	-1	-6.123238e-17	0	1	6.123238e-17	0	-6.12324e-17	-1	0	0	0	0	-0.07434405	-0.1936257	-0.004848879	NaN	NaN	NaN	4.074074e-07	1e-07	162
0	0	-0.29382473	0	-1	-6.123238e-17	0	1	6.123238e-17	0	-6.12324e-17	-1	0	0	0	0	-0.06898385	-0.19808263	-0.004976469	NaN	NaN	NaN	4.1358024e-07	1e-07	162
0	0	-0.29382473	0	-1	-6.123238e-17	0	1	6.123238e-17	0	-6.12324e-17	-1	0	0	0	0	-0.063613266	-0.20206706	-0.00509266	NaN	NaN	NaN	4.197531e-07	1e-07	162
0	0	-0.29382473	0	-1	-6.123238e-17	0	1	6.123238e-17	0	-6.12324e-17	-1	0	0	0	0	-0.058259327	-0.20561065	-0.005197757	NaN	NaN	NaN	4.2592592e-07	1e-07	162
0	0	-0.29382473	0	-1	-6.123238e-17	0	1	6.123238e-17	0	-6.12324e-17	-1	0	0	0	0	-0.052940663	-0.20874473	-0.005292121	NaN	NaN	NaN	4.3209877e-07	1e-07	162
0	0	-0.29382473	0	-1	-6.123238e-17	0	1	6.123238e-17	0	-6.123241e-17	-1	0	0	0	0	-0.047669526	-0.21149886	-0.0053761713	NaN	NaN	NaN	4.382716e-07	1e-07	162
0	0	-0.29382473	0	-1	-6.123238e-17	0	1	6.123238e-17	0	-6.12324e-17	-1	0	0	0	0	-0.042452663	-0.21390049	-0.0054503353	NaN	NaN	NaN	4.4444445e-07	1e-07	162
0	0	-0.29382473	0	-1	-6.123238e-17	0	1	6.123238e-17	0	-6.12324e-17	-1	0	0	0	0	-0.03729283	-0.2159743	-0.005515042	NaN	NaN	NaN	4.5061728e-07	1e-07	162
0	0	-0.29382473	0	-1	-6.123238e-17	0	1	6.123238e-17	0	-6.123241e-17	-1	0	0	0	0	-0.032189067	-0.21774223	-0.0055706906	NaN	NaN	NaN	4.5679013e-07	1e-07	162
0	0	-0.29382473	0	-1	-6.123238e-17	0	1	6.123238e-17	0	-6.12324e-17	-1	0	0	0	0	-0.027138151	-0.21922316	-0.0056176623	NaN	NaN	NaN	4.6296296e-07	1e-07	162
0	0	-0.29382473	0	-1	-6.123238e-17	0	1	6.123238e-17	0	-6.12324e-17	-1	0	0	0	0	-0.022134662	-0.22043325	-0.0056562796	NaN	NaN	NaN	4.691358e-07	1e-07	162
0	0	-0.29382473	0	-1	-6.123238e-17	0	1	6.123238e-17	0	-6.12324e-17	-1	0	0	0	0	-0.017171884	-0.22138564	-0.00568683	NaN	NaN	NaN	4.7530864e-07	1e-07	162
0	0	-0.29382473	0	-1	-6.123238e-17	0	1	6.123238e-17	0	-6.12324e-17	-1	0	0	0	0	-0.012241643	-0.22209091	-0.0057095364	NaN	NaN	NaN	4.814815e-07	1e-07	162
0	0	-0.29382473	0	-1	-6.123238e-17	0	1	6.123238e-17	0	-6.12324e-17	-1	0	0	0	0	-0.007335363	-0.2225568	-0.0057245796	NaN	NaN	NaN	4.8765435e-07	1e-07	162
0	0	-0.29382473	0	-1	-6.123238e-17	0	1	6.123238e-17	0	-6.123241e-17	-1	0	0	0	0	-0.0024434729	-0.2227885	-0.0057320683	NaN	NaN	NaN	4.9382714e-07	1e-07	162
0	0	-0.29382473	0	-1	-6.123238e-17	0	1	6.123238e-17	0	-6.12324e-17	-1	0	0	0	0	0.002443475	-0.2227885	-0.0057320683	NaN	NaN	NaN	5e-07	1e-07	162
0	0	-0.29382473	0	-1	-6.123238e-17	0	1	6.123238e-17	0	-6.12324e-17	-1	0	0	0	0	0.0073352996	-0.22255684	-0.0057245772	NaN	NaN	NaN	5.0617285e-07	1e-07	162
0	0	-0.29382473	0	-1	-6.123238e-17	0	1	6.123238e-17	0	-6.12324e-17	-1	0	0	0	0	0.012241622	-0.22209093	-0.0057095364	NaN	NaN	NaN	5.123457e-07	1e-07	162
0	0	-0.29382473	0	-1	-6.123238e-17	0	1	6.123238e-17	0	-6.12324e-17	-1	0	0	0	0	0.017171904	-0.22138569	-0.0056868247	NaN	NaN	NaN	5.185185e-07	1e-07	162
0	0	-0.29382473	0	-1	-6.123238e-17	0	1	6.123238e-17	0	-6.123241e-17	-1	0	0	0	0	0.022134703	-0.22043322	-0.00565628	NaN	NaN	NaN	5.2469136e-07	1e-07	162
0	0	-0.29382473	0	-1	-6.123238e-17	0	1	6.123238e-17	0	-6.12324e-17	-1	0	0	0	0	0.027138134	-0.2192232	-0.0056176623	NaN	NaN	NaN	5.308642e-07	1e-07	162
0	0	-0.29382473	0	-1	-6.123238e-17	0	1	6.123238e-17	0	-6.12324e-17	-1	0	0	0	0	0.032189053	-0.21774222	-0.005570694	NaN	NaN	NaN	5.37037e-07	1e-07	162
0	0	-0.29382473	0	-1	-6.123238e-17	0	1	6.123238e-17	0	-6.12324e-17	-1	0	0	0	0	0.037292782	-0.21597435	-0.00551504	NaN	NaN	NaN	5.4320986e-07	1e-07	162
0	0	-0.29382473	0	-1	-6.123238e-17	0	1	6.123238e-17	0	-6.12324e-17	-1	0	0	0	0	0.04245267	-0.21390049	-0.0054503363	NaN	NaN	NaN	5.493827e-07	1e-07	162
0	0	-0.29382473	0	-1	-6.123238e-17	0	1	6.123238e-17	0	-6.12324e-17	-1	0	0	0	0	0.0476695	-0.21149887	-0.00537617	NaN	NaN	NaN	5.555556e-07	1e-07	162
0	0	-0.29382473	0	-1	-6.123238e-17	0	1	6.123238e-17	0	-6.123241e-17	-1	0	0	0	0	0.05294068	-0.20874473	-0.005292126	NaN	NaN	NaN	5.6172837e-07	1e-07	162
0	0	-0.29382473	0	-1	-6.123238e-17	0	1	6.123238e-17	0	-6.12324e-17	-1	0	0	0	0	0.058259327	-0.20561069	-0.0051977583	NaN	NaN	NaN	5.679012e-07	1e-07	162
0	0	-0.29382473	0	-1	-6.123238e-17	0	1	6.123238e-17	0	-6.12324e-17	-1	0	0	0	0	0.06361332	-0.20206703	-0.0050926665	NaN	NaN	NaN	5.740741e-07	1e-07	162
0	0	-0.29382473	0	-1	-6.123238e-17	0	1	6.123238e-17	0	-6.12324e-17	-1	0	0	0	0	0.068983816	-0.19808267	-0.004976469	NaN	NaN	NaN	5.8024693e-07	1e-07	162
0	0	-0.29382473	0	-1	-6.123238e-17	0	1	6.123238e-17	0	-6.12324e-17	-1	0	0	0	0	0.07434399	-0.19362567	-0.0048488844	NaN	NaN	NaN	5.8641973e-07	1e-07	162
0	0	-0.29382473	0	-1	-6.123238e-17	0	1	6.123238e-17	0	-6.12324e-17	-1	0	0	0	0	0.07965734	-0.18866566	-0.00470972	NaN	NaN	NaN	5.925926e-07	1e-07	162
0	0	-0.29382473	0	-1	-6.123238e-17	0	1	6.123238e-17	0	-6.12324e-17	-1	0	0	0	0	0.08487594	-0.18317562	-0.004558964	NaN	NaN	NaN	5.9876544e-07	1e-07	162
0	0	-0.29382473	0	-1	-6.123238e-17	0	1	6.123238e-17	0	-6.123241e-17	-1	0	0	0	0	0.08993973	-0.177136	-0.00439679	NaN	NaN	NaN	6.049383e-07	1e-07	162
0	0	-0.29382473	0	-1	-6.123238e-17	0	1	6.123238e-17	0	-6.12324e-17	-1	0	0	0	0	0.09477564	-0.17053874	-0.004223641	NaN	NaN	NaN	6.111111e-07	1e-07	162
0	0	-0.29382473	0	-1	-6.123238e-17	0	1	6.123238e-17	0	-6.12324e-17	-1	0	0	0	0	0.09929892	-0.16339333	-0.00404024	NaN	NaN	NaN	6.1728394e-07	1e-07	162
0	0	-0.29382473	0	-1	-6.123238e-17	0	1	6.123238e-17	0	-6.12324e-17	-1	0	0	0	0	0.10341631	-0.15573257	-0.0038476316	NaN	NaN	NaN	6.234568e-07	1e-07	162
0	0	-0.29382473	0	-1	-6.123238e-17	0	1	6.123238e-17	0	-6.12324e-17	-1	0	0	0	0	0.107033156	-0.14761871	-0.0036471616	NaN	NaN	NaN	6.2962965e-07	1e-07	162
0	0	-0.29382473	0	-1	-6.123238e-17	0	1	6.123238e-17	0	-6.12324e-17	-1	0	0	0	0	0.110062785	-0.13914503	-0.003440487	NaN	NaN	NaN	6.3580245e-07	1e-07	162
0	0	-0.29382473	0	-1	-6.123238e-17	0	1	6.123238e-17	0	-6.123241e-17	-1	0	0	0	0	0.11243898	-0.13043506	-0.0032294835	NaN	NaN	NaN	6.419753e-07	1e-07	162
0	0	-0.29382473	0	-1	-6.123238e-17	0	1	6.123238e-17	0	-6.12324e-17	-1	0	0	0	0	0.11412671	-0.12163397	-0.0030161985	NaN	NaN	NaN	6.4814816e-07	1e-07	162
0	0	-0.29382473	0	-1	-6.123238e-17	0	1	6.123238e-17	0	-6.123241e-17	-1	0	0	0	0	0.11513	-0.112894826	-0.0028027105	NaN	NaN	NaN	6.54321e-07	1e-07	162
0	0	-0.29382473	0	-1	-6.123238e-17	0	1	6.123238e-17	0	-6.12324e-17	-1	0	0	0	0	0.11549086	-0.10436258	-0.002591046	NaN	NaN	NaN	6.604938e-07	1e-07	162
0	0	-0.29382473	0	-1	-6.123238e-17	0	1	6.123238e-17	0	-6.12324e-17	-1	0	0	0	0	0.11528329	-0.09616043	-0.0023830582	NaN	NaN	NaN	6.6666666e-07	1e-07	162
0	0	-0.29382473	0	-1	-6.123238e-17	0	1	6.123238e-17	0	-6.12324e-17	-1	0	0	0	0	0.114601314	-0.0883811	-0.0021803577	NaN	NaN	NaN	6.728395e-07	1e-07	162
0	0	-0.29382473	0	-1	-6.123238e-17	0	1	6.123238e-17	0	-6.12324e-17	-1	0	0	0	0	0.113547534	-0.081086084	-0.0019842344	NaN	NaN	NaN	6.790124e-07	1e-07	162
0	0	-0.29382473	0	-1	-6.123238e-17	0	1	6.123238e-17	0	-6.12324e-17	-1	0	0	0	0	0.11222286	-0.07430729	-0.001795652	NaN	NaN	NaN	6.8518517e-07	1e-07	162
0	0	-0.29382473	0	-1	-6.123238e-17	0	1	6.123238e-17	0	-6.12324e-17	-1	0	0	0	0	0.110720254	-0.068053015	-0.001615241	NaN	NaN	NaN	6.91358e-07	1e-07	162
0	0	-0.29382473	0	-1	-6.123238e-17	0	1	6.123238e-17	0	-6.12324e-17	-1	0	0	0	0	0.109120786	-0.062313873	-0.0014433254	NaN	NaN	NaN	6.975309e-07	1e-07	162
0	0	-0.29382473	0	-1	-6.123238e-17	0	1	6.123238e-17	0	-6.12324e-17	-1	0	0	0	0	0.10749326	-0.057068612	-0.0012799606	NaN	NaN	NaN	7.037037e-07	1e-07	162
0	0	-0.29382473	0	-1	-6.123238e-17	0	1	6.123238e-17	0	-6.12324e-17	-1	0	0	0	0	0.10589427	-0.052288454	-0.001124974	NaN	NaN	NaN	7.0987653e-07	1e-07	162
0	0	-0.29382473	0	-1	-6.123238e-17	0	1	6.123238e-17	0	-6.12324e-17	-1	0	0	0	0	0.104369506	-0.047940757	-0.0009780104	NaN	NaN	NaN	7.160494e-07	1e-07	162
0	0	-0.29382473	0	-1	-6.123238e-17	0	1	6.123238e-17	0	-6.12324e-17	-1	0	0	0	0	0.10295526	-0.04399128	-0.00083857664	NaN	NaN	NaN	7.2222224e-07	1e-07	162
0	0	-0.29382473	0	-1	-6.123238e-17	0	1	6.123238e-17	0	-6.12324e-17	-1	0	0	0	0	0.10168035	-0.040406007	-0.000706083	NaN	NaN	NaN	7.2839504e-07	1e-07	162
0	0	-0.29382473	0	-1	-6.123238e-17	0	1	6.123238e-17	0	-6.12324e-17	-1	0	0	0	0	0.100567326	-0.037152108	-0.0005798555	NaN	NaN	NaN	7.345679e-07	1e-07	162
0	0	-0.29382473	0	-1	-6.123238e-17	0	1	6.123238e-17	0	-6.123241e-17	-1	0	0	0	0	0.099633865	-0.03419864	-0.00045918365	NaN	NaN	NaN	7.4074075e-07	1e-07	162
0	0	-0.29382473	0	-1	-6.123238e-17	0	1	6.123238e-17	0	-6.12324e-17	-1	0	0	0	0	0.09889402	-0.03151686	-0.00034332302	NaN	NaN	NaN	7.469136e-07	1e-07	162
0	0	-0.29382473	0	-1	-6.123238e-17	0	1	6.123238e-17	0	-6.12324e-17	-1	0	0	0	0	0.098359324	-0.029080389	-0.0002315109	NaN	NaN	NaN	7.530864e-07	1e-07	162
0	0	-0.29382473	0	-1	-6.123238e-17	0	1	6.123238e-17	0	-6.12324e-17	-1	0	0	0	0	0.09803896	-0.026865156	-0.00012297487	NaN	NaN	NaN	7.5925925e-07	1e-07	162
0	0	-0.29382473	0	-1	-6.123238e-17	0	1	6.123238e-17	0	-6.123241e-17	-1	0	0	0	0	0.09794107	-0.024849402	-1.6939337e-05	NaN	NaN	NaN	7.654321e-07	1e-07	162
0	0	-0.29382473	0	-1	-6.123238e-17	0	1	6.123238e-17	0	-6.12324e-17	-1	0	0	0	0	0.0980732	-0.023013458	8.737428e-05	NaN	NaN	NaN	7.7160496e-07	1e-07	162
0	0	-0.29382473	0	-1	-6.123238e-17	0	1	6.123238e-17	0	-6.12324e-17	-1	0	0	0	0	0.09844227	-0.021339694	0.0001907545	NaN	NaN	NaN	7.7777776e-07	1e-07	162
0	0	-0.29382473	0	-1	-6.123238e-17	0	1	6.123238e-17	0	-6.12324e-17	-1	0	0	0	0	0.09905563	-0.01981225	0.00029399167	NaN	NaN	NaN	7.839506e-07	1e-07	162
0	0	-0.29382473	0	-1	-6.123238e-17	0	1	6.123238e-17	0	-6.12324e-17	-1	0	0	0	0	0.09992074	-0.018416962	0.00039790486	NaN	NaN	NaN	7.9012347e-07	1e-07	162
0	0	-0.29382473	0	-1	-6.123238e-17	0	1	6.123238e-17	0	-6.12324e-17	-1	0	0	0	0	0.10104589	-0.017141117	0.0005033235	NaN	NaN	NaN	7.962963e-07	1e-07	162
0	0	-0.29382473	0	-1	-6.123238e-17	0	1	6.123238e-17	0	-6.12324e-17	-1	0	0	0	0	0.10244039	-0.015973402	0.0006111176	NaN	NaN	NaN	8.024691e-07	1e-07	162
0	0	-0.29382473	0	-1	-6.123238e-17	0	1	6.123238e-17	0	-6.12324e-17	-1	0	0	0	0	0.10411448	-0.01490365	0.00072219	NaN	NaN	NaN	8.0864197e-07	1e-07	162
0	0	-0.29382473	0	-1	-6.123238e-17	0	1	6.123238e-17	0	-6.12324e-17	-1	0	0	0	0	0.10607996	-0.0139228115	0.00083751034	NaN	NaN	NaN	8.148148e-07	1e-07	162
0	0	-0.29382473	0	-1	-6.123238e-17	0	1	6.123238e-17	0	-6.12324e-17	-1	0	0	0	0	0.10834998	-0.0130227655	0.0009581032	NaN	NaN	NaN	8.209877e-07	1e-07	162
0	0	-0.29382473	0	-1	-6.123238e-17	0	1	6.123238e-17	0	-6.12324e-17	-1	0	0	0	0	0.11093993	-0.012196285	0.0010850861	NaN	NaN	NaN	8.271605e-07	1e-07	162
0	0	-0.29382473	0	-1	-6.123238e-17	0	1	6.123238e-17	0	-6.123241e-17	-1	0	0	0	0	0.113866836	-0.011436855	0.001219677	NaN	NaN	NaN	8.3333333e-07	1e-07	162
0	0	-0.29382473	0	-1	-6.123238e-17	0	1	6.123238e-17	0	-6.12324e-17	-1	0	0	0	0	0.117150284	-0.0107386885	0.0013632156	NaN	NaN	NaN	8.395062e-07	1e-07	162
0	0	-0.29382473	0	-1	-6.123238e-17	0	1	6.123238e-17	0	-6.12324e-17	-1	0	0	0	0	0.120812535	-0.0100965435	0.0015171911	NaN	NaN	NaN	8.4567904e-07	1e-07	162
0	0	-0.29382473	0	-1	-6.123238e-17	0	1	6.123238e-17	0	-6.12324e-17	-1	0	0	0	0	0.12487874	-0.0095057655	0.0016832732	NaN	NaN	NaN	8.5185184e-07	1e-07	162
0	0	-0.29382473	0	-1	-6.123238e-17	0	1	6.123238e-17	0	-6.12324e-17	-1	0	0	0	0	0.12937737	-0.008962122	0.0018633383	NaN	NaN	NaN	8.580247e-07	1e-07	162
0	0	-0.29382473	0	-1	-6.123238e-17	0	1	6.123238e-17	0	-6.12324e-17	-1	0	0	0	0	0.13434061	-0.00846185	0.0020595158	NaN	NaN	NaN	8.6419755e-07	1e-07	162
0	0	-0.29382473	0	-1	-6.123238e-17	0	1	6.123238e-17	0	-6.123241e-17	-1	0	0	0	0	0.13980505	-0.008001497	0.0022742262	NaN	NaN	NaN	8.7037034e-07	1e-07	162
0	0	-0.29382473	0	-1	-6.123238e-17	0	1	6.123238e-17	0	-6.12324e-17	-1	0	0	0	0	0.14581218	-0.007578002	0.002510258	NaN	NaN	NaN	8.765432e-07	1e-07	162
0	0	-0.29382473	0	-1	-6.123238e-17	0	1	6.123238e-17	0	-6.12324e-17	-1	0	0	0	0	0.15240882	-0.0071885334	0.0027708123	NaN	NaN	NaN	8.8271605e-07	1e-07	162
0	0	-0.29382473	0	-1	-6.123238e-17	0	1	6.123238e-17	0	-6.12324e-17	-1	0	0	0	0	0.1596487	-0.006830548	0.0030596016	NaN	NaN	NaN	8.888889e-07	1e-07	162
0	0	-0.29382473	0	-1	-6.123238e-17	0	1	6.123238e-17	0	-6.12324e-17	-1	0	0	0	0	0.16759224	-0.0065016877	0.0033809368	NaN	NaN	NaN	8.950617e-07	1e-07	162
0	0	-0.29382473	0	-1	-6.123238e-17	0	1	6.123238e-17	0	-6.12324e-17	-1	0	0	0	0	0.17630903	-0.006199813	0.0037398557	NaN	NaN	NaN	9.0123456e-07	1e-07	162
0	0	-0.29382473	0	-1	-6.123238e-17	0	1	6.123238e-17	0	-6.12324e-17	-1	0	0	0	0	0.18587828	-0.0059229224	0.0041422653	NaN	NaN	NaN	9.074074e-07	1e-07	162
0	0	-0.29382473	0	-1	-6.123238e-17	0	1	6.123238e-17	0	-6.12324e-17	-1	0	0	0	0	0.19639122	-0.005669145	0.0045951386	NaN	NaN	NaN	9.1358027e-07	1e-07	162
0	0	-0.29382473	0	-1	-6.123238e-17	0	1	6.123238e-17	0	-6.12324e-17	-1	0	0	0	0	0.2079523	-0.005436724	0.00510672	NaN	NaN	NaN	9.1975306e-07	1e-07	162
0	0	-0.29382473	0	-1	-6.123238e-17	0	1	6.123238e-17	0	-6.12324e-17	-1	0	0	0	0	0.22068295	-0.0052239867	0.00568683	NaN	NaN	NaN	9.259259e-07	1e-07	162
0	0	-0.29382473	0	-1	-6.123238e-17	0	1	6.123238e-17	0	-6.12324e-17	-1	0	0	0	0	0.23472324	-0.0050293263	0.00634721	NaN	NaN	NaN	9.3209877e-07	1e-07	162
0	0	-0.29382473	0	-1	-6.123238e-17	0	1	6.123238e-17	0	-6.12324e-17	-1	0	0	0	0	0.25023696	-0.00485117	0.0071019935	NaN	NaN	NaN	9.382716e-07	1e-07	162
0	0	-0.29382473	0	-1	-6.123238e-17	0	1	6.123238e-17	0	-6.12324e-17	-1	0	0	0	0	0.2674156	-0.004687983	0.00796829	NaN	NaN	NaN	9.444444e-07	1e-07	162
0	0	-0.29382473	0	-1	-6.123238e-17	0	1	6.123238e-17	0	-6.12324e-17	-1	0	0	0	0	0.2864843	-0.004538241	0.008966996	NaN	NaN	NaN	9.506173e-07	1e-07	162
0	0	-0.29382473	0	-1	-6.123238e-17	0	1	6.123238e-17	0	-6.12324e-17	-1	0	0	0	0	0.30770922	-0.0044004316	0.010123843	NaN	NaN	NaN	9.567901e-07	1e-07	162
0	0	-0.29382473	0	-1	-6.123238e-17	0	1	6.123238e-17	0	-6.12324e-17	-1	0	0	0	0	0.331407	-0.004273029	0.011470907	NaN	NaN	NaN	9.62963e-07	1e-07	162
0	0	-0.29382473	0	-1	-6.123238e-17	0	1	6.123238e-17	0	-6.123241e-17	-1	0	0	0	0	0.35795614	-0.0041545117	0.013048724	NaN	NaN	NaN	9.691358e-07	1e-07	162
0	0	-0.29382473	0	-1	-6.123238e-17	0	1	6.123238e-17	0	-6.12324e-17	-1	0	0	0	0	0.38771966	-0.0040433533	0.014907244	NaN	NaN	NaN	9.753087e-07	1e-07	162
0	0	-0.29382473	0	-1	-6.123238e-17	0	1	6.123238e-17	0	-6.12324e-17	-1	0	0	0	0	0.421257	-0.0039380654	0.017109012	NaN	NaN	NaN	9.814814e-07	1e-07	162
0	0	-0.29382473	0	-1	-6.123238e-17	0	1	6.123238e-17	0	-6.12324e-17	-1	0	0	0	0	0.45932424	-0.0038371382	0.01974681	NaN	NaN	NaN	9.876543e-07	1e-07	162
0	0	-0.29382473	0	-1	-6.123238e-17	0	1	6.123238e-17	0	-6.12324e-17	-1	0	0	0	0	0.50273454	-0.0037391675	0.02295162	NaN	NaN	NaN	9.938271e-07	1e-07	162
0	0	-0.29382473	0	-1	-6.123238e-17	0	1	6.123238e-17	0	-6.12324e-17	-1	0	0	0	0	0.50273454	-0.003739168	0.022951616	-4.526228e-09	-0.101353556	5.8603473e-09	9.938271e-07	5e-08	162
0	0	-0.29382473	0	-1	-6.123238e-17	0	1	6.123238e-17	0	-6.12324e-17	-1	0	0	0	0	0.50273454	-0.003739168	0.022951616	-6.6310166e-09	-0.09866173	6.518094e-09	9.938271e-07	5.6756758e-08	162
0	0	-0.29382473	0	-1	-6.123238e-17	0	1	6.123238e-17	0	-6.12324e-17	-1	0	0	0	0	0.50273454	-0.0037391675	0.022951618	-7.133931e-09	-0.096117884	7.466879e-09	9.938271e-07	6.351351e-08	162
0	0	-0.29382473	0	-1	-6.123238e-17	0	1	6.123238e-17	0	-6.123241e-17	-1	0	0	0	0	0.50273454	-0.0037391675	0.022951616	-7.371418e-09	-0.0937124	7.93254e-09	9.938271e-07	7.027027e-08	162
0	0	-0.29382473	0	-1	-6.123238e-17	0	1	6.123238e-17	0	-6.12324e-17	-1	0	0	0	0	0.50273454	-0.0037391675	0.022951616	-7.543713e-09	-0.08895716	9.459618e-09	9.938271e-07	7.7027025e-08	162
0	0	-0.29382473	0	-1	-6.123238e-17	0	1	6.123238e-17	0	-6.12324e-17	-1	0	0	0	0	0.50273454	-0.0037391675	0.022951616	-6.579794e-09	-0.08459201	9.862415e-09	9.938271e-07	8.378378e-08	162
0	0	-0.29382473	0	-1	-6.123238e-17	0	1	6.123238e-17	0	-6.12324e-17	-1	0	0	0	0	0.50273454	-0.003739168	0.022951618	-6.4447523e-09	-0.080584295	9.100477e-09	9.938271e-07	9.054054e-08	162
0	0	-0.29382473	0	-1	-6.123238e-17	0	1	6.123238e-17	0	-6.12324e-17	-1	0	0	0	0	0.50273454	-0.0037391675	0.022951616	-6.0908496e-09	-0.07690499	7.654016e-09	9.938271e-07	9.7297296e-08	162
0	0	-0.29382473	0	-1	-6.123238e-17	0	1	6.123238e-17	0	-6.12324e-17	-1	0	0	0	0	0.50273454	-0.003739168	0.022951618	-5.066395e-09	-0.07352828	5.4595874e-09	9.938271e-07	1.0405405e-07	162
0	0	-0.29382473	0	-1	-6.123238e-17	0	1	6.123238e-17	0	-6.12324e-17	-1	0	0	0	0	0.50273454	-0.0037391675	0.02295162	-5.0477684e-09	-0.07043136	3.794412e-09	9.938271e-07	1.1081081e-07	162
0	0	-0.29382473	0	-1	-6.123238e-17	0	1	6.123238e-17	0	-6.12324e-17	-1	0	0	0	0	0.50273454	-0.0037391675	0.022951618	-5.0943343e-09	-0.06759382	2.4486508e-09	9.938271e-07	1.17567566e-07	162
0	0	-0.29382473	0	-1	-6.123238e-17	0	1	6.123238e-17	0	-6.12324e-17	-1	0	0	0	0	0.50273454	-0.003739168	0.022951618	-4.05591e-09	-0.06499758	2.4486508e-09	9.938271e-07	1.2432433e-07	162
0	0	-0.29382473	0	-1	-6.123238e-17	0	1	6.123238e-17	0	-6.123241e-17	-1	0	0	0	0	0.50273454	-0.003739168	0.022951616	-5.48549e-09	-0.06262661	2.131419e-09	9.938271e-07	1.3108108e-07	162
0	0	-0.29382473	0	-1	-6.123238e-17	0	1	6.123238e-17	0	-6.12324e-17	-1	0	0	0	0	0.50273454	-0.003739168	0.022951616	-6.5052883e-09	-0.06046665	1.6898412e-09	9.938271e-07	1.3783784e-07	162
0	0	-0.29382473	0	-1	-6.123238e-17	0	1	6.123238e-17	0	-6.12324e-17	-1	0	0	0	0	0.50273454	-0.003739168	0.022951618	-7.087365e-09	-0.05850503	1.8074207e-09	9.938271e-07	1.445946e-07	162
0	0	-0.29382473	0	-1	-6.123238e-17	0	1	6.123238e-17	0	-6.12324e-17	-1	0	0	0	0	0.50273454	-0.0037391675	0.022951616	-7.6624564e-09	-0.056730546	1.411754e-09	9.938271e-07	1.5135136e-07	162
0	0	-0.29382473	0	-1	-6.123238e-17	0	1	6.123238e-17	0	-6.12324e-17	-1	0	0	0	0	0.50273454	-0.0037391675	0.02295162	-7.0850366e-09	-0.05513336	1.5786645e-09	9.938271e-07	1.5810811e-07	162
0	0	-0.29382473	0	-1	-6.123238e-17	0	1	6.123238e-17	0	-6.12324e-17	-1	0	0	0	0	0.50273454	-0.0037391675	0.02295162	-6.4680354e-09	-0.05370475	2.097695e-09	9.938271e-07	1.6486486e-07	162
0	0	-0.29382473	0	-1	-6.123238e-17	0	1	6.123238e-17	0	-6.12324e-17	-1	0	0	0	0	0.50273454	-0.003739168	0.022951618	-5.227048e-09	-0.0524372	1.9821618e-09	9.938271e-07	1.7162162e-07	162
0	0	-0.29382473	0	-1	-6.123238e-17	0	1	6.123238e-17	0	-6.12324e-17	-1	0	0	0	0	0.50273454	-0.003739168	0.022951616	-5.6787393e-09	-0.0513241	2.3746225e-09	9.938271e-07	1.7837837e-07	162
0	0	-0.29382473	0	-1	-6.123238e-17	0	1	6.123238e-17	0	-6.12324e-17	-1	0	0	0	0	0.50273454	-0.003739168	0.022951616	-6.3702466e-09	-0.05035977	2.5310738e-09	9.938271e-07	1.8513514e-07	162
0	0	-0.29382473	0	-1	-6.123238e-17	0	1	6.123238e-17	0	-6.12324e-17	-1	0	0	0	0	0.50273454	-0.0037391675	0.022951616	-6.390037e-09	-0.049539432	2.4659175e-09	9.938271e-07	1.9189189e-07	162
0	0	-0.29382473	0	-1	-6.123238e-17	0	1	6.123238e-17	0	-6.12324e-17	-1	0	0	0	0	0.50273454	-0.003739168	0.022951616	-7.331837e-09	-0.048859067	2.365391e-09	9.938271e-07	1.9864865e-07	162
0	0	-0.29382473	0	-1	-6.123238e-17	0	1	6.123238e-17	0	-6.12324e-17	-1	0	0	0	0	0.50273454	-0.003739168	0.022951618	-7.1316024e-09	-0.04831546	1.3904901e-09	9.938271e-07	2.054054e-07	162
0	0	-0.29382473	0	-1	-6.123238e-17	0	1	6.123238e-17	0	-6.12324e-17	-1	0	0	0	0	0.50273454	-0.0037391675	0.022951616	-6.0978347e-09	-0.047906075	1.1943121e-09	9.938271e-07	2.1216216e-07	162
0	0	-0.29382473	0	-1	-6.123238e-17	0	1	6.123238e-17	0	-6.12324e-17	-1	0	0	0	0	0.50273454	-0.003739168	0.022951618	-6.3399783e-09	-0.047629096	1.4327451e-09	9.938271e-07	2.1891891e-07	162
0	0	-0.29382473	0	-1	-6.123238e-17	0	1	6.123238e-17	0	-6.12324e-17	-1	0	0	0	0	0.50273454	-0.0037391675	0.022951618	-6.1898024e-09	-0.047483396	1.8472202e-09	9.938271e-07	2.2567568e-07	162