# t (s)	mx ()	my ()	mz ()	m.region32x ()	m.region32y ()	m.region32z ()	m.region33x ()	m.region33y ()	m.region33z ()	m.region34x ()	m.region34y ()	m.region34z ()	B_extx (T)	B_exty (T)	B_extz (T)	B_eff.region6x (T)	B_eff.region6y (T)	B_eff.region6z (T)	B_eff.region9x (T)	B_eff.region9y (T)	B_eff.region9z (T)	step_x (No unit)	step_y (No unit)
0	-0.99957633	-8.9225877e-10	2.230142e-13	-0.99957633	-8.9225877e-10	2.230137e-13	NaN	NaN	NaN	NaN	NaN	NaN	0	0	0	NaN	NaN	NaN	NaN	NaN	NaN	0	1e-07
0	-0.9995428	-5.6655458e-11	-1.1962179e-11	-0.9995428	-5.6655458e-11	-1.1962179e-11	NaN	NaN	NaN	NaN	NaN	NaN	0.03999998	0	0	NaN	NaN	NaN	NaN	NaN	NaN	0	1e-07
0	-0.99950343	-1.3581788e-11	-2.6842374e-11	-0.9995035	-1.3581788e-11	-2.6842374e-11	NaN	NaN	NaN	NaN	NaN	NaN	0.07999996	0	0	NaN	NaN	NaN	NaN	NaN	NaN	0	1e-07
0	-0.99945664	3.1173435e-11	-1.5477533e-10	-0.99945676	3.1173435e-11	-1.5477533e-10	NaN	NaN	NaN	NaN	NaN	NaN	0.1199999	0	0	NaN	NaN	NaN	NaN	NaN	NaN	0	1e-07
0	-0.9993996	7.890372e-11	1.1011014e-11	-0.9993996	7.890372e-11	1.1011014e-11	NaN	NaN	NaN	NaN	NaN	NaN	0.15999992	0	0	NaN	NaN	NaN	NaN	NaN	NaN	0	1e-07
0	-0.99932784	-1.02342e-09	6.7438895e-11	-0.99932784	-1.02342e-09	6.7438895e-11	NaN	NaN	NaN	NaN	NaN	NaN	0.1999999	0	0	NaN	NaN	NaN	NaN	NaN	NaN	0	1e-07
0	-0.9992341	-5.5620654e-11	-2.0455443e-11	-0.9992341	-5.5620654e-11	-2.0455443e-11	NaN	NaN	NaN	NaN	NaN	NaN	0.2399998	0	0	NaN	NaN	NaN	NaN	NaN	NaN	0	1e-07
0	-0.9991041	-1.6505106e-10	8.427891e-12	-0.9991042	-1.6505106e-10	8.427891e-12	NaN	NaN	NaN	NaN	NaN	NaN	0.28	0	0	NaN	NaN	NaN	NaN	NaN	NaN	0	1e-07
0	-0.99890685	-8.08181e-10	2.9382802e-11	-0.9989068	-8.08181e-10	2.9382802e-11	NaN	NaN	NaN	NaN	NaN	NaN	0.31999984	0	0	NaN	NaN	NaN	NaN	NaN	NaN	0	1e-07
0	-0.99855256	3.337239e-11	4.07757e-11	-0.9985525	3.337239e-11	4.07757e-11	NaN	NaN	NaN	NaN	NaN	NaN	0.3600001	0	0	NaN	NaN	NaN	NaN	NaN	NaN	0	1e-07
0	-0.9975975	1.1545813e-09	1.4244156e-10	-0.9975975	1.1545813e-09	1.4244154e-10	NaN	NaN	NaN	NaN	NaN	NaN	0.3999998	0	0	NaN	NaN	NaN	NaN	NaN	NaN	0	1e-07
0	0.99977046	-2.4240257e-10	-4.3281195e-11	0.99977034	-2.4240257e-10	-4.3281195e-11	NaN	NaN	NaN	NaN	NaN	NaN	0.4400001	0	0	NaN	NaN	NaN	NaN	NaN	NaN	0	1e-07
0	0.9997803	3.4019145e-11	-6.59647e-12	0.9997803	3.4019145e-11	-6.59647e-12	NaN	NaN	NaN	NaN	NaN	NaN	0.4799996	0	0	NaN	NaN	NaN	NaN	NaN	NaN	0	1e-07
0	0.9997893	-4.5143275e-11	-1.354953e-10	0.99978936	-4.5143275e-11	-1.354953e-10	NaN	NaN	NaN	NaN	NaN	NaN	0.5200004	0	0	NaN	NaN	NaN	NaN	NaN	NaN	0	1e-07
0	0.99979776	2.4059166e-11	5.7778952e-11	0.99979776	2.4059166e-11	5.7778952e-11	NaN	NaN	NaN	NaN	NaN	NaN	0.56	0	0	NaN	NaN	NaN	NaN	NaN	NaN	0	1e-07
0	0.9998057	2.068959e-10	1.0648998e-10	0.99980575	2.068959e-10	1.0648998e-10	NaN	NaN	NaN	NaN	NaN	NaN	0.59999996	0	0	NaN	NaN	NaN	NaN	NaN	NaN	0	1e-07
0	0.9998131	9.235616e-11	-2.0828068e-11	0.9998131	9.235616e-11	-2.0828068e-11	NaN	NaN	NaN	NaN	NaN	NaN	0.6399997	0	0	NaN	NaN	NaN	NaN	NaN	NaN	0	1e-07
0	0.9998202	-2.4356672e-10	1.5604051e-12	0.9998202	-2.4356672e-10	1.5604051e-12	NaN	NaN	NaN	NaN	NaN	NaN	0.68000025	0	0	NaN	NaN	NaN	NaN	NaN	NaN	0	1e-07
0	0.9998234	-4.2426916e-11	-3.266573e-12	0.9998234	-4.2426916e-11	-3.266573e-12	NaN	NaN	NaN	NaN	NaN	NaN	0.70000035	0	0	NaN	NaN	NaN	NaN	NaN	NaN	0	1e-07
0	0.9998167	-3.3288314e-10	5.806421e-11	0.9998167	-3.3288314e-10	5.806421e-11	NaN	NaN	NaN	NaN	NaN	NaN	0.6599999	0	0	NaN	NaN	NaN	NaN	NaN	NaN	0	1e-07
0	0.9998095	-8.407773e-13	2.0223273e-11	0.9998095	-8.407773e-13	2.0223273e-11	NaN	NaN	NaN	NaN	NaN	NaN	0.6200001	0	0	NaN	NaN	NaN	NaN	NaN	NaN	0	1e-07
0	0.9998057	8.045592e-11	9.358021e-11	0.99980575	8.045592e-11	9.3580206e-11	NaN	NaN	NaN	NaN	NaN	NaN	0.59999996	0	0	NaN	NaN	NaN	NaN	NaN	NaN	0	1e-07
0	0.9998018	-6.396375e-11	9.8792904e-11	0.9998018	-6.396375e-11	9.879291e-11	NaN	NaN	NaN	NaN	NaN	NaN	0.5800002	0	0	NaN	NaN	NaN	NaN	NaN	NaN	0	1e-07
0	0.99979776	-4.6307427e-11	7.777989e-11	0.99979776	-4.6307427e-11	7.7779894e-11	NaN	NaN	NaN	NaN	NaN	NaN	0.56	0	0	NaN	NaN	NaN	NaN	NaN	NaN	0	1e-07
0	0.9997937	-5.2904296e-11	5.9691946e-11	0.9997937	-5.2904296e-11	5.9691946e-11	NaN	NaN	NaN	NaN	NaN	NaN	0.5400005	0	0	NaN	NaN	NaN	NaN	NaN	NaN	0	1e-07
0	0.99978936	1.82384e-11	-8.999037e-11	0.99978936	1.82384e-11	-8.999037e-11	NaN	NaN	NaN	NaN	NaN	NaN	0.5200004	0	0	NaN	NaN	NaN	NaN	NaN	NaN	0	1e-07
0	0.9997848	2.3438285e-10	-1.6217326e-11	0.9997848	2.3438285e-10	-1.6217328e-11	NaN	NaN	NaN	NaN	NaN	NaN	0.5	0	0	NaN	NaN	NaN	NaN	NaN	NaN	0	1e-07
0	0.9997802	1.3905163e-10	7.1790633e-12	0.9997803	1.3905163e-10	7.179063e-12	NaN	NaN	NaN	NaN	NaN	NaN	0.4799996	0	0	NaN	NaN	NaN	NaN	NaN	NaN	0	1e-07
0	0.9997754	-3.1639097e-10	1.1415051e-11	0.9997754	-3.1639097e-10	1.1415051e-11	NaN	NaN	NaN	NaN	NaN	NaN	0.4599996	0	0	NaN	NaN	NaN	NaN	NaN	NaN	0	1e-07
0	0.99977034	-6.596868e-11	-1.8036423e-11	0.99977034	-6.596868e-11	-1.8036423e-11	NaN	NaN	NaN	NaN	NaN	NaN	0.4400001	0	0	NaN	NaN	NaN	NaN	NaN	NaN	0	1e-07
0	0.99976534	-2.417558e-10	-6.6841237e-12	0.9997652	-2.417558e-10	-6.684124e-12	NaN	NaN	NaN	NaN	NaN	NaN	0.42000005	0	0	NaN	NaN	NaN	NaN	NaN	NaN	0	1e-07
0	0.99975973	-2.0851278e-10	-3.4236475e-11	0.99975973	-2.0851278e-10	-3.4236475e-11	NaN	NaN	NaN	NaN	NaN	NaN	0.3999998	0	0	NaN	NaN	NaN	NaN	NaN	NaN	0	1e-07
0	0.99975425	1.5884224e-10	4.936391e-11	0.99975425	1.5884224e-10	4.9363905e-11	NaN	NaN	NaN	NaN	NaN	NaN	0.37999982	0	0	NaN	NaN	NaN	NaN	NaN	NaN	0	1e-07
0	0.9997484	-1.5431498e-10	-6.435357e-11	0.9997484	-1.5431498e-10	-6.435357e-11	NaN	NaN	NaN	NaN	NaN	NaN	0.3600001	0	0	NaN	NaN	NaN	NaN	NaN	NaN	0	1e-07
0	0.9997424	1.7345883e-10	-8.483675e-12	0.9997424	1.7345883e-10	-8.483674e-12	NaN	NaN	NaN	NaN	NaN	NaN	0.34000012	0	0	NaN	NaN	NaN	NaN	NaN	NaN	0	1e-07
0	0.9997359	1.4875291e-10	-6.102533e-11	0.9997359	1.4875291e-10	-6.102534e-11	NaN	NaN	NaN	NaN	NaN	NaN	0.31999984	0	0	NaN	NaN	NaN	NaN	NaN	NaN	0	1e-07
0	0.9997294	4.9411836e-11	2.246011e-11	0.9997294	4.9411836e-11	2.2460108e-11	NaN	NaN	NaN	NaN	NaN	NaN	0.29999998	0	0	NaN	NaN	NaN	NaN	NaN	NaN	0	1e-07
0	0.9997224	8.782889e-11	9.476476e-12	0.9997225	8.782889e-11	9.476476e-12	NaN	NaN	NaN	NaN	NaN	NaN	0.28	0	0	NaN	NaN	NaN	NaN	NaN	NaN	0	1e-07
0	0.9997152	-2.7745653e-10	1.81602e-11	0.9997152	-2.7745653e-10	1.81602e-11	NaN	NaN	NaN	NaN	NaN	NaN	0.2600002	0	0	NaN	NaN	NaN	NaN	NaN	NaN	0	1e-07
0	0.9997076	2.350296e-10	-4.756885e-11	0.99970764	2.350296e-10	-4.7568848e-11	NaN	NaN	NaN	NaN	NaN	NaN	0.2399998	0	0	NaN	NaN	NaN	NaN	NaN	NaN	0	1e-07
0	0.9996997	1.5754874e-10	-3.1236062e-11	0.9996997	1.5754874e-10	-3.1236062e-11	NaN	NaN	NaN	NaN	NaN	NaN	0.22000004	0	0	NaN	NaN	NaN	NaN	NaN	NaN	0	1e-07
0	0.9996914	3.0914736e-11	7.767385e-12	0.9996914	3.0914736e-11	7.767385e-12	NaN	NaN	NaN	NaN	NaN	NaN	0.1999999	0	0	NaN	NaN	NaN	NaN	NaN	NaN	0	1e-07
0	0.9996825	-2.0734862e-10	6.8478966e-11	0.99968255	-2.0734862e-10	6.8478966e-11	NaN	NaN	NaN	NaN	NaN	NaN	0.18000005	0	0	NaN	NaN	NaN	NaN	NaN	NaN	0	1e-07
0	0.99967337	6.428713e-11	6.662099e-11	0.99967325	6.428713e-11	6.6620987e-11	NaN	NaN	NaN	NaN	NaN	NaN	0.15999992	0	0	NaN	NaN	NaN	NaN	NaN	NaN	0	1e-07
0	0.99966353	-1.9234399e-10	-8.116044e-11	0.99966353	-1.9234399e-10	-8.116044e-11	NaN	NaN	NaN	NaN	NaN	NaN	0.14	0	0	NaN	NaN	NaN	NaN	NaN	NaN	0	1e-07
0	0.99965334	1.2508179e-10	-1.04296204e-10	0.99965334	1.2508179e-10	-1.042962e-10	NaN	NaN	NaN	NaN	NaN	NaN	0.1199999	0	0	NaN	NaN	NaN	NaN	NaN	NaN	0	1e-07
0	0.99964225	-4.2517462e-10	-6.4168726e-11	0.9996423	-4.2517462e-10	-6.416873e-11	NaN	NaN	NaN	NaN	NaN	NaN	0.09999995	0	0	NaN	NaN	NaN	NaN	NaN	NaN	0	1e-07
0	0.99963075	-7.0858125e-10	1.4614844e-10	0.99963075	-7.0858125e-10	1.4614844e-10	NaN	NaN	NaN	NaN	NaN	NaN	0.07999996	0	0	NaN	NaN	NaN	NaN	NaN	NaN	0	1e-07
0	0.9996185	-5.743156e-11	3.242746e-11	0.9996185	-5.743156e-11	3.242746e-11	NaN	NaN	NaN	NaN	NaN	NaN	0.05999995	0	0	NaN	NaN	NaN	NaN	NaN	NaN	0	1e-07
0	0.99960536	1.1111196e-10	1.4487907e-11	0.99960536	1.1111196e-10	1.4487907e-11	NaN	NaN	NaN	NaN	NaN	NaN	0.03999998	0	0	NaN	NaN	NaN	NaN	NaN	NaN	0	1e-07
0	0.9995912	3.62181e-10	-4.7724692e-11	0.9995913	3.62181e-10	-4.772469e-11	NaN	NaN	NaN	NaN	NaN	NaN	0.01999999	0	0	NaN	NaN	NaN	NaN	NaN	NaN	0	1e-07
0	0.9995763	9.8694324e-11	6.954089e-11	0.9995763	9.8694324e-11	6.954089e-11	NaN	NaN	NaN	NaN	NaN	NaN	-2.8449465e-16	0	0	NaN	NaN	NaN	NaN	NaN	NaN	0	1e-07
0	0.99956024	3.6179296e-10	6.7750576e-11	0.99956024	3.6179296e-10	6.775057e-11	NaN	NaN	NaN	NaN	NaN	NaN	-0.01999999	0	0	NaN	NaN	NaN	NaN	NaN	NaN	0	1e-07
0	0.9995428	1.2055454e-10	-1.07722e-10	0.9995428	1.2055454e-10	-1.07722e-10	NaN	NaN	NaN	NaN	NaN	NaN	-0.03999998	0	0	NaN	NaN	NaN	NaN	NaN	NaN	0	1e-07
0	0.99952394	5.9759864e-11	-2.9585785e-11	0.99952394	5.9759864e-11	-2.9585785e-11	NaN	NaN	NaN	NaN	NaN	NaN	-0.05999995	0	0	NaN	NaN	NaN	NaN	NaN	NaN	0	1e-07
0	0.9995037	-3.410969e-10	1.1123158e-10	0.9995037	-3.410969e-10	1.1123158e-10	NaN	NaN	NaN	NaN	NaN	NaN	-0.07999996	0	0	NaN	NaN	NaN	NaN	NaN	NaN	0	1e-07
0	0.9994812	-1.3607658e-10	-9.122049e-11	0.9994812	-1.3607658e-10	-9.122049e-11	NaN	NaN	NaN	NaN	NaN	NaN	-0.09999995	0	0	NaN	NaN	NaN	NaN	NaN	NaN	0	1e-07
0	0.99945676	5.432715e-11	6.0644996e-11	0.99945664	5.432715e-11	6.0644996e-11	NaN	NaN	NaN	NaN	NaN	NaN	-0.1199999	0	0	NaN	NaN	NaN	NaN	NaN	NaN	0	1e-07
0	0.9994298	-5.283962e-10	9.9177264e-11	0.9994298	-5.283962e-10	9.9177264e-11	NaN	NaN	NaN	NaN	NaN	NaN	-0.14	0	0	NaN	NaN	NaN	NaN	NaN	NaN	0	1e-07
0	0.9993996	-9.09333e-11	-1.7227822e-10	0.9993996	-9.09333e-11	-1.722782e-10	NaN	NaN	NaN	NaN	NaN	NaN	-0.15999992	0	0	NaN	NaN	NaN	NaN	NaN	NaN	0	1e-07
0	0.99936604	-8.0999196e-10	6.373998e-11	0.99936604	-8.0999196e-10	6.373998e-11	NaN	NaN	NaN	NaN	NaN	NaN	-0.18000005	0	0	NaN	NaN	NaN	NaN	NaN	NaN	0	1e-07
0	0.99932796	1.2303806e-09	5.2938e-11	0.9993278	1.2303806e-09	5.2938e-11	NaN	NaN	NaN	NaN	NaN	NaN	-0.1999999	0	0	NaN	NaN	NaN	NaN	NaN	NaN	0	1e-07
0	0.9992845	2.2791533e-10	8.741069e-11	0.99928445	2.2791533e-10	8.74107e-11	NaN	NaN	NaN	NaN	NaN	NaN	-0.22000004	0	0	NaN	NaN	NaN	NaN	NaN	NaN	0	1e-07
0	0.999234	1.433202e-10	-5.6780698e-11	0.9992341	1.433202e-10	-5.6780695e-11	NaN	NaN	NaN	NaN	NaN	NaN	-0.2399998	0	0	NaN	NaN	NaN	NaN	NaN	NaN	0	1e-07
0	0.999175	-3.3631094e-11	4.59198e-11	0.9991749	-3.3631094e-11	4.59198e-11	NaN	NaN	NaN	NaN	NaN	NaN	-0.2600002	0	0	NaN	NaN	NaN	NaN	NaN	NaN	0	1e-07
0	0.9991041	1.1977844e-10	3.1871034e-11	0.9991041	1.1977844e-10	3.1871034e-11	NaN	NaN	NaN	NaN	NaN	NaN	-0.28	0	0	NaN	NaN	NaN	NaN	NaN	NaN	0	1e-07
0	0.9990171	1.6272275e-10	1.3275836e-10	0.9990172	1.6272275e-10	1.3275837e-10	NaN	NaN	NaN	NaN	NaN	NaN	-0.29999998	0	0	NaN	NaN	NaN	NaN	NaN	NaN	0	1e-07
0	0.99890685	7.7325646e-10	-2.965297e-12	0.9989068	7.7325646e-10	-2.9652977e-12	NaN	NaN	NaN	NaN	NaN	NaN	-0.31999984	0	0	NaN	NaN	NaN	NaN	NaN	NaN	0	1e-07
0	0.99876046	3.986578e-10	-4.7214847e-11	0.99876046	3.986578e-10	-4.7214854e-11	NaN	NaN	NaN	NaN	NaN	NaN	-0.34000012	0	0	NaN	NaN	NaN	NaN	NaN	NaN	0	1e-07
0	0.9985525	3.6554412e-10	-2.2391063e-11	0.9985525	3.6554412e-10	-2.2391061e-11	NaN	NaN	NaN	NaN	NaN	NaN	-0.3600001	0	0	NaN	NaN	NaN	NaN	NaN	NaN	0	1e-07
0	0.9982241	-5.1584925e-10	-1.3069365e-10	0.9982241	-5.1584925e-10	-1.3069365e-10	NaN	NaN	NaN	NaN	NaN	NaN	-0.37999982	0	0	NaN	NaN	NaN	NaN	NaN	NaN	0	1e-07
0	0.99759746	-1.2068389e-09	-1.1776316e-10	0.9975975	-1.2068389e-09	-1.1776317e-10	NaN	NaN	NaN	NaN	NaN	NaN	-0.3999998	0	0	NaN	NaN	NaN	NaN	NaN	NaN	0	1e-07
0	0.9959604	1.3059213e-09	1.0951137e-10	0.9959604	1.3059213e-09	1.0951137e-10	NaN	NaN	NaN	NaN	NaN	NaN	-0.42000005	0	0	NaN	NaN	NaN	NaN	NaN	NaN	0	1e-07
0	-0.99977046	3.0462008e-10	7.303416e-11	-0.99977034	3.0462008e-10	7.303416e-11	NaN	NaN	NaN	NaN	NaN	NaN	-0.4400001	0	0	NaN	NaN	NaN	NaN	NaN	NaN	0	1e-07
0	-0.9997754	3.0345593e-10	-2.253577e-11	-0.9997754	3.0345593e-10	-2.253577e-11	NaN	NaN	NaN	NaN	NaN	NaN	-0.4599996	0	0	NaN	NaN	NaN	NaN	NaN	NaN	0	1e-07
0	-0.9997803	6.7520885e-11	1.31607e-11	-0.9997803	6.7520885e-11	1.3160699e-11	NaN	NaN	NaN	NaN	NaN	NaN	-0.4799996	0	0	NaN	NaN	NaN	NaN	NaN	NaN	0	1e-07
0	-0.99978495	-1.8716997e-10	2.9638392e-11	-0.99978495	-1.8716997e-10	2.9638392e-11	NaN	NaN	NaN	NaN	NaN	NaN	-0.5	0	0	NaN	NaN	NaN	NaN	NaN	NaN	0	1e-07
0	-0.99978936	1.1033585e-10	6.725245e-11	-0.99978936	1.1033585e-10	6.725245e-11	NaN	NaN	NaN	NaN	NaN	NaN	-0.5200004	0	0	NaN	NaN	NaN	NaN	NaN	NaN	0	1e-07
0	-0.9997937	-6.803829e-11	-4.6496565e-12	-0.9997937	-6.803829e-11	-4.6496565e-12	NaN	NaN	NaN	NaN	NaN	NaN	-0.5400005	0	0	NaN	NaN	NaN	NaN	NaN	NaN	0	1e-07
0	-0.99979776	-6.7520885e-11	-5.5013962e-11	-0.99979776	-6.7520885e-11	-5.5013962e-11	NaN	NaN	NaN	NaN	NaN	NaN	-0.56	0	0	NaN	NaN	NaN	NaN	NaN	NaN	0	1e-07
0	-0.9998018	-4.9282488e-11	-3.4518527e-11	-0.9998018	-4.9282488e-11	-3.451853e-11	NaN	NaN	NaN	NaN	NaN	NaN	-0.5800002	0	0	NaN	NaN	NaN	NaN	NaN	NaN	0	1e-07
0	-0.99980575	1.8044375e-11	-8.9551894e-11	-0.99980575	1.8044375e-11	-8.9551914e-11	NaN	NaN	NaN	NaN	NaN	NaN	-0.59999996	0	0	NaN	NaN	NaN	NaN	NaN	NaN	0	1e-07
0	-0.9998018	-4.7536256e-11	-1.00097874e-10	-0.9998018	-4.7536256e-11	-1.0009787e-10	NaN	NaN	NaN	NaN	NaN	NaN	-0.5800002	0	0	NaN	NaN	NaN	NaN	NaN	NaN	0	1e-07
0	-0.99979776	-1.5392692e-11	-9.308086e-11	-0.99979776	-1.5392692e-11	-9.308086e-11	NaN	NaN	NaN	NaN	NaN	NaN	-0.56	0	0	NaN	NaN	NaN	NaN	NaN	NaN	0	1e-07
0	-0.99979365	6.971984e-11	-3.0623483e-11	-0.99979365	6.971984e-11	-3.0623483e-11	NaN	NaN	NaN	NaN	NaN	NaN	-0.5400005	0	0	NaN	NaN	NaN	NaN	NaN	NaN	0	1e-07
0	-0.9997894	4.656613e-11	7.562799e-11	-0.99978936	4.656613e-11	7.562799e-11	NaN	NaN	NaN	NaN	NaN	NaN	-0.5200004	0	0	NaN	NaN	NaN	NaN	NaN	NaN	0	1e-07
0	-0.9997849	-4.5841766e-10	4.3362723e-11	-0.9997848	-4.5841766e-10	4.3362727e-11	NaN	NaN	NaN	NaN	NaN	NaN	-0.5	0	0	NaN	NaN	NaN	NaN	NaN	NaN	0	1e-07
0	-0.9997803	-4.0848844e-10	4.1931606e-12	-0.9997803	-4.0848844e-10	4.1931606e-12	NaN	NaN	NaN	NaN	NaN	NaN	-0.4799996	0	0	NaN	NaN	NaN	NaN	NaN	NaN	0	1e-07
0	-0.9997754	2.751282e-10	-6.229988e-11	-0.9997754	2.751282e-10	-6.229988e-11	NaN	NaN	NaN	NaN	NaN	NaN	-0.4599996	0	0	NaN	NaN	NaN	NaN	NaN	NaN	0	1e-07
0	-0.99977034	1.0529119e-10	5.4011726e-11	-0.99977034	1.0529119e-10	5.4011722e-11	NaN	NaN	NaN	NaN	NaN	NaN	-0.4400001	0	0	NaN	NaN	NaN	NaN	NaN	NaN	0	1e-07
0	-0.9997653	2.825012e-10	3.655436e-11	-0.9997652	2.825012e-10	3.655436e-11	NaN	NaN	NaN	NaN	NaN	NaN	-0.42000005	0	0	NaN	NaN	NaN	NaN	NaN	NaN	0	1e-07
0	-0.9997598	2.2041301e-10	1.9838365e-11	-0.9997598	2.2041301e-10	1.9838365e-11	NaN	NaN	NaN	NaN	NaN	NaN	-0.3999998	0	0	NaN	NaN	NaN	NaN	NaN	NaN	0	1e-07
0	-0.99975425	-1.3737007e-10	-5.339615e-11	-0.99975425	-1.3737007e-10	-5.339615e-11	NaN	NaN	NaN	NaN	NaN	NaN	-0.37999982	0	0	NaN	NaN	NaN	NaN	NaN	NaN	0	1e-07
0	-0.9997484	1.6867287e-10	7.38567e-11	-0.9997484	1.6867287e-10	7.38567e-11	NaN	NaN	NaN	NaN	NaN	NaN	-0.3600001	0	0	NaN	NaN	NaN	NaN	NaN	NaN	0	1e-07
0	-0.9997424	-1.2728076e-10	2.7470312e-11	-0.99974227	-1.2728076e-10	2.7470309e-11	NaN	NaN	NaN	NaN	NaN	NaN	-0.34000012	0	0	NaN	NaN	NaN	NaN	NaN	NaN	0	1e-07
0	-0.9997359	-1.9156787e-10	5.5278504e-11	-0.9997359	-1.9156787e-10	5.5278507e-11	NaN	NaN	NaN	NaN	NaN	NaN	-0.31999984	0	0	NaN	NaN	NaN	NaN	NaN	NaN	0	1e-07
0	-0.9997294	-3.408382e-10	-3.8018134e-11	-0.99972945	-3.408382e-10	-3.8018134e-11	NaN	NaN	NaN	NaN	NaN	NaN	-0.29999998	0	0	NaN	NaN	NaN	NaN	NaN	NaN	0	1e-07
0	-0.9997225	-1.8949828e-10	-5.953659e-11	-0.9997225	-1.8949828e-10	-5.953659e-11	NaN	NaN	NaN	NaN	NaN	NaN	-0.28	0	0	NaN	NaN	NaN	NaN	NaN	NaN	0	1e-07
0	-0.9997152	3.5791245e-10	5.146787e-13	-0.9997152	3.5791245e-10	5.146789e-13	NaN	NaN	NaN	NaN	NaN	NaN	-0.2600002	0	0	NaN	NaN	NaN	NaN	NaN	NaN	0	1e-07
0	-0.9997076	-2.417558e-10	5.2157015e-11	-0.9997077	-2.417558e-10	5.2157015e-11	NaN	NaN	NaN	NaN	NaN	NaN	-0.2399998	0	0	NaN	NaN	NaN	NaN	NaN	NaN	0	1e-07
0	-0.9996997	-1.654391e-10	2.872645e-11	-0.9996997	-1.654391e-10	2.872645e-11	NaN	NaN	NaN	NaN	NaN	NaN	-0.22000004	0	0	NaN	NaN	NaN	NaN	NaN	NaN	0	1e-07
0	-0.9996914	-1.5302147e-10	-2.5667083e-11	-0.9996913	-1.5302147e-10	-2.5667085e-11	NaN	NaN	NaN	NaN	NaN	NaN	-0.1999999	0	0	NaN	NaN	NaN	NaN	NaN	NaN	0	1e-07
0	-0.9996825	3.1807254e-10	-7.7192856e-11	-0.99968255	3.1807254e-10	-7.7192856e-11	NaN	NaN	NaN	NaN	NaN	NaN	-0.18000005	0	0	NaN	NaN	NaN	NaN	NaN	NaN	0	1e-07
0	-0.9996733	1.5651393e-11	-3.4349756e-11	-0.9996733	1.5651393e-11	-3.4349756e-11	NaN	NaN	NaN	NaN	NaN	NaN	-0.15999992	0	0	NaN	NaN	NaN	NaN	NaN	NaN	0	1e-07
0	-0.99966353	2.2222392e-10	1.0890306e-11	-0.99966353	2.2222392e-10	1.0890307e-11	NaN	NaN	NaN	NaN	NaN	NaN	-0.14	0	0	NaN	NaN	NaN	NaN	NaN	NaN	0	1e-07
0	-0.99965334	-2.4938748e-10	5.8682816e-11	-0.99965316	-2.4938748e-10	5.8682816e-11	NaN	NaN	NaN	NaN	NaN	NaN	-0.1199999	0	0	NaN	NaN	NaN	NaN	NaN	NaN	0	1e-07
0	-0.9996423	5.3188864e-10	7.013645e-11	-0.9996423	5.3188864e-10	7.013645e-11	NaN	NaN	NaN	NaN	NaN	NaN	-0.09999995	0	0	NaN	NaN	NaN	NaN	NaN	NaN	0	1e-07
0	-0.9996307	3.916729e-10	-2.3623162e-11	-0.99963075	3.916729e-10	-2.3623159e-11	NaN	NaN	NaN	NaN	NaN	NaN	-0.07999996	0	0	NaN	NaN	NaN	NaN	NaN	NaN	0	1e-07
0	-0.99961853	2.1472159e-11	-1.37753324e-11	-0.99961853	2.1472159e-11	-1.3775333e-11	NaN	NaN	NaN	NaN	NaN	NaN	-0.05999995	0	0	NaN	NaN	NaN	NaN	NaN	NaN	0	1e-07
0	-0.9996054	-1.07748845e-10	-4.9686734e-11	-0.99960536	-1.07748845e-10	-4.9686734e-11	NaN	NaN	NaN	NaN	NaN	NaN	-0.03999998	0	0	NaN	NaN	NaN	NaN	NaN	NaN	0	1e-07
0	-0.9995912	-6.779252e-10	1.770034e-11	-0.9995912	-6.779252e-10	1.770034e-11	NaN	NaN	NaN	NaN	NaN	NaN	-0.01999999	0	0	NaN	NaN	NaN	NaN	NaN	NaN	0	1e-07
0	-0.9995763	2.7680977e-11	-1.01824674e-10	-0.9995763	2.7680977e-11	-1.0182467e-10	NaN	NaN	NaN	NaN	NaN	NaN	2.8449465e-16	0	0	NaN	NaN	NaN	NaN	NaN	NaN	0	1e-07
0	-0.99956024	-3.410969e-10	-9.1089934e-11	-0.99956024	-3.410969e-10	-9.108993e-11	NaN	NaN	NaN	NaN	NaN	NaN	0.01999999	0	0	NaN	NaN	NaN	NaN	NaN	NaN	0	1e-07
0	-0.9995428	-2.8987415e-10	1.5273598e-11	-0.9995428	-2.8987415e-10	1.5273598e-11	NaN	NaN	NaN	NaN	NaN	NaN	0.03999998	0	0	NaN	NaN	NaN	NaN	NaN	NaN	0	1e-07
0	-0.999524	1.7177727e-10	-2.3091336e-11	-0.99952394	1.7177727e-10	-2.3091336e-11	NaN	NaN	NaN	NaN	NaN	NaN	0.05999995	0	0	NaN	NaN	NaN	NaN	NaN	NaN	0	1e-07
0	-0.99950343	-1.6815546e-10	-8.720257e-11	-0.9995035	-1.6815546e-10	-8.7202565e-11	NaN	NaN	NaN	NaN	NaN	NaN	0.07999996	0	0	NaN	NaN	NaN	NaN	NaN	NaN	0	1e-07
0	-0.9994812	1.448724e-10	1.203281e-11	-0.9994812	1.448724e-10	1.2032808e-11	NaN	NaN	NaN	NaN	NaN	NaN	0.09999995	0	0	NaN	NaN	NaN	NaN	NaN	NaN	0	1e-07
0	-0.99945676	-6.7520885e-11	-9.165301e-11	-0.99945676	-6.7520885e-11	-9.165301e-11	NaN	NaN	NaN	NaN	NaN	NaN	0.1199999	0	0	NaN	NaN	NaN	NaN	NaN	NaN	0	1e-07
0	-0.99942964	2.504223e-10	-1.6312024e-10	-0.99942964	2.504223e-10	-1.6312024e-10	NaN	NaN	NaN	NaN	NaN	NaN	0.14	0	0	NaN	NaN	NaN	NaN	NaN	NaN	0	1e-07
0	-0.9993996	1.5754874e-10	9.5346626e-11	-0.9993996	1.5754874e-10	9.5346626e-11	NaN	NaN	NaN	NaN	NaN	NaN	0.15999992	0	0	NaN	NaN	NaN	NaN	NaN	NaN	0	1e-07
0	-0.999366	5.2671467e-10	1.5283382e-11	-0.9993659	5.2671467e-10	1.5283384e-11	NaN	NaN	NaN	NaN	NaN	NaN	0.18000005	0	0	NaN	NaN	NaN	NaN	NaN	NaN	0	1e-07
0	-0.9993278	-1.0531707e-09	-2.1996797e-11	-0.9993278	-1.0531707e-09	-2.1996795e-11	NaN	NaN	NaN	NaN	NaN	NaN	0.1999999	0	0	NaN	NaN	NaN	NaN	NaN	NaN	0	1e-07
0	-0.9992844	-3.7330514e-10	-9.0886076e-11	-0.9992844	-3.7330514e-10	-9.088608e-11	NaN	NaN	NaN	NaN	NaN	NaN	0.22000004	0	0	NaN	NaN	NaN	NaN	NaN	NaN	0	1e-07
0	-0.9992341	-1.9842344e-10	5.804741e-11	-0.999234	-1.9842344e-10	5.8047407e-11	NaN	NaN	NaN	NaN	NaN	NaN	0.2399998	0	0	NaN	NaN	NaN	NaN	NaN	NaN	0	1e-07
0	-0.99917495	5.5620654e-11	2.105877e-11	-0.99917495	5.5620654e-11	2.1058768e-11	NaN	NaN	NaN	NaN	NaN	NaN	0.2600002	0	0	NaN	NaN	NaN	NaN	NaN	NaN	0	1e-07
0	-0.99910414	-9.364966e-11	6.479387e-12	-0.9991041	-9.364966e-11	6.479387e-12	NaN	NaN	NaN	NaN	NaN	NaN	0.28	0	0	NaN	NaN	NaN	NaN	NaN	NaN	0	1e-07
0	-0.9990171	-2.6102903e-10	-1.00754745e-10	-0.9990172	-2.6102903e-10	-1.00754745e-10	NaN	NaN	NaN	NaN	NaN	NaN	0.29999998	0	0	NaN	NaN	NaN	NaN	NaN	NaN	0	1e-07
0	-0.99890685	-8.5086665e-10	-1.8644366e-11	-0.99890685	-8.5086665e-10	-1.8644366e-11	NaN	NaN	NaN	NaN	NaN	NaN	0.31999984	0	0	NaN	NaN	NaN	NaN	NaN	NaN	0	1e-07
0	-0.99876046	-6.384734e-10	-3.917635e-11	-0.99876046	-6.384734e-10	-3.917635e-11	NaN	NaN	NaN	NaN	NaN	NaN	0.34000012	0	0	NaN	NaN	NaN	NaN	NaN	NaN	0	1e-07
0	-0.99855256	-1.2417635e-10	3.672795e-11	-0.9985525	-1.2417635e-10	3.6727947e-11	NaN	NaN	NaN	NaN	NaN	NaN	0.3600001	0	0	NaN	NaN	NaN	NaN	NaN	NaN	0	1e-07
0	-0.9982241	9.0027846e-11	1.266826e-10	-0.9982241	9.0027846e-11	1.266826e-10	NaN	NaN	NaN	NaN	NaN	NaN	0.37999982	0	0	NaN	NaN	NaN	NaN	NaN	NaN	0	1e-07
0	-0.9975975	1.22055e-09	6.7144776e-11	-0.99759746	1.22055e-09	6.7144776e-11	NaN	NaN	NaN	NaN	NaN	NaN	0.3999998	0	0	NaN	NaN	NaN	NaN	NaN	NaN	0	1e-07
0	-0.9959604	3.3553482e-10	-1.0102997e-10	-0.9959604	3.3553482e-10	-1.01029976e-10	NaN	NaN	NaN	NaN	NaN	NaN	0.42000005	0	0	NaN	NaN	NaN	NaN	NaN	NaN	0	1e-07
0	0.99977034	-2.2481092e-10	-4.9354635e-11	0.99977034	-2.2481092e-10	-4.935464e-11	NaN	NaN	NaN	NaN	NaN	NaN	0.4400001	0	0	NaN	NaN	NaN	NaN	NaN	NaN	0	1e-07
0	0.9997754	-2.7939678e-10	-7.863232e-12	0.99977535	-2.7939678e-10	-7.863232e-12	NaN	NaN	NaN	NaN	NaN	NaN	0.4599996	0	0	NaN	NaN	NaN	NaN	NaN	NaN	0	1e-07
0	0.9997803	-9.0027846e-11	2.896352e-11	0.9997803	-9.0027846e-11	2.896352e-11	NaN	NaN	NaN	NaN	NaN	NaN	0.4799996	0	0	NaN	NaN	NaN	NaN	NaN	NaN	0	1e-07
0	0.99978495	2.0657252e-10	-2.9008046e-11	0.99978495	2.0657252e-10	-2.9008046e-11	NaN	NaN	NaN	NaN	NaN	NaN	0.5	0	0	NaN	NaN	NaN	NaN	NaN	NaN	0	1e-07
0	0.99978936	-1.5858354e-10	-9.068593e-11	0.9997893	-1.5858354e-10	-9.0685924e-11	NaN	NaN	NaN	NaN	NaN	NaN	0.5200004	0	0	NaN	NaN	NaN	NaN	NaN	NaN	0	1e-07
0	0.99979365	3.8805108e-13	3.8368215e-11	0.99979365	3.8805108e-13	3.8368215e-11	NaN	NaN	NaN	NaN	NaN	NaN	0.5400005	0	0	NaN	NaN	NaN	NaN	NaN	NaN	0	1e-07
0	0.99979776	7.502321e-12	4.916339e-11	0.99979776	7.502321e-12	4.9163385e-11	NaN	NaN	NaN	NaN	NaN	NaN	0.56	0	0	NaN	NaN	NaN	NaN	NaN	NaN	0	1e-07
0	0.9998018	9.843562e-11	4.331136e-11	0.9998018	9.843562e-11	4.331136e-11	NaN	NaN	NaN	NaN	NaN	NaN	0.5800002	0	0	NaN	NaN	NaN	NaN	NaN	NaN	0	1e-07
0	0.9998018	9.843562e-11	4.331136e-11	0.99977845	1.3955377e-10	4.5428335e-11	NaN	NaN	NaN	NaN	NaN	NaN	0.5800002	0	0	1.3187034	1.1764075e-08	1.5685433e-09	NaN	NaN	NaN	0	1e-07
0	0.9998018	9.843562e-11	4.331136e-11	0.99977845	1.3955377e-10	4.5428335e-11	NaN	NaN	NaN	NaN	NaN	NaN	0.5800002	0	0	1.1314873	7.842717e-09	-1.9606792e-09	NaN	NaN	NaN	4.875e-09	1e-07
0	0.9998018	9.843562e-11	4.3311358e-11	0.99977684	3.3880843e-09	-3.1738695e-10	NaN	NaN	NaN	NaN	NaN	NaN	0.5800002	0	0	1.130855	0.0003277479	-6.5408256e-07	NaN	NaN	NaN	4.875e-09	5e-08
0	0.9998018	9.843562e-11	4.3311365e-11	0.99977624	3.943282e-09	-3.4218203e-10	NaN	NaN	NaN	NaN	NaN	NaN	0.5800002	0	0	1.1305563	0.00040370892	3.0939518e-07	0.81587666	0.00066875975	-0.0077883536	4.875e-09	5.9285714e-08
