# t (s)	mx ()	my ()	mz ()	m.region21x ()	m.region21y ()	m.region21z ()	m.region22x ()	m.region22y ()	m.region22z ()	m.region23x ()	m.region23y ()	m.region23z ()	B_extx (T)	B_exty (T)	B_extz (T)	B_eff.region6x (T)	B_eff.region6y (T)	B_eff.region6z (T)	B_eff.region9x (T)	B_eff.region9y (T)	B_eff.region9z (T)	step_x (No unit)	step_y (No unit)
0	0.43396315	-0.22267118	1.8355992e-10	0.7115077	-0.6999453	5.7549515e-10	0.70937926	-0.7016127	-7.577986e-11	0.70180434	0.709041	6.7739214e-10	0	0	0	NaN	NaN	NaN	NaN	NaN	NaN	0	1e-07
0	0.4332727	-0.22197552	4.46242e-11	0.7115207	-0.6999184	4.0563763e-10	0.7093852	-0.7015893	3.441501e-10	0.7002342	0.7105939	-4.3659001e-10	-0.002121324	0.002121324	0	NaN	NaN	NaN	NaN	NaN	NaN	0	1e-07
0	0.43258145	-0.22128047	7.701971e-11	0.71153384	-0.69989145	2.1987545e-10	0.70939106	-0.7015658	2.891533e-10	0.69866014	0.7121432	1.7921939e-10	-0.004242648	0.004242648	0	NaN	NaN	NaN	NaN	NaN	NaN	0	1e-07
0	0.43188947	-0.22058608	3.3712085e-11	0.71154684	-0.6998643	1.8127998e-10	0.7093969	-0.70154214	-1.5837705e-10	0.6970824	0.7136889	1.7977829e-10	-0.0063639795	0.0063639795	0	NaN	NaN	NaN	NaN	NaN	NaN	0	1e-07
0	0.43119678	-0.21989232	6.797373e-11	0.71155983	-0.6998371	4.305084e-10	0.70940274	-0.7015184	1.8870948e-10	0.6955009	0.7152308	-2.463605e-10	-0.008485296	0.008485296	0	NaN	NaN	NaN	NaN	NaN	NaN	0	1e-07
0	0.43050325	-0.21919917	-8.641671e-11	0.71157295	-0.6998096	-3.7231274e-10	0.7094085	-0.70149446	-2.9031128e-10	0.69391537	0.7167692	4.9324383e-10	-0.010606594	0.010606594	0	NaN	NaN	NaN	NaN	NaN	NaN	0	1e-07
0	0.42980903	-0.21850665	-1.33413645e-11	0.71158594	-0.69978213	-1.2403466e-10	0.7094143	-0.7014704	-2.2649112e-11	0.6923262	0.7183041	-2.78894e-11	-0.012727959	0.012727959	0	NaN	NaN	NaN	NaN	NaN	NaN	0	1e-07
0	0.42911395	-0.21781471	6.7504747e-12	0.7115991	-0.6997544	-2.1936358e-10	0.70941997	-0.7014461	8.642883e-11	0.690733	0.71983516	5.842049e-11	-0.014849202	0.014849202	0	NaN	NaN	NaN	NaN	NaN	NaN	0	1e-07
0	0.4284182	-0.2171234	8.173837e-11	0.7116121	-0.69972664	4.4671664e-10	0.7094256	-0.70142174	2.4897195e-10	0.6891359	0.72136277	-2.979977e-10	-0.016970592	0.016970592	0	NaN	NaN	NaN	NaN	NaN	NaN	0	1e-07
0	0.42772156	-0.21643269	1.1467375e-10	0.7116253	-0.6996987	3.479399e-10	0.70943123	-0.70139724	-1.2304188e-10	0.6875349	0.72288686	3.413415e-10	-0.019091899	0.019091899	0	NaN	NaN	NaN	NaN	NaN	NaN	0	1e-07
0	0.42702416	-0.21574254	1.1710492e-10	0.7116383	-0.69967055	1.4167827e-10	0.7094368	-0.70137244	9.7216915e-11	0.68592995	0.72440743	3.9130368e-10	-0.021213189	0.021213189	0	NaN	NaN	NaN	NaN	NaN	NaN	0	1e-07
0	0.42632598	-0.215053	1.549315e-10	0.7116515	-0.69964224	2.631792e-10	0.7094424	-0.70134765	2.772654e-10	0.68432117	0.72592443	5.045639e-11	-0.023334505	0.023334505	0	NaN	NaN	NaN	NaN	NaN	NaN	0	1e-07
0	0.4256269	-0.21436402	-2.3631827e-10	0.7116645	-0.69961375	-2.674825e-10	0.70944786	-0.7013226	-9.874468e-11	0.68270826	0.727438	-4.975581e-10	-0.025455918	0.025455918	0	NaN	NaN	NaN	NaN	NaN	NaN	0	1e-07
0	0.4249271	-0.2136756	1.9209959e-10	0.7116777	-0.6995852	1.9134713e-10	0.70945334	-0.7012974	-2.3873165e-10	0.6810913	0.728948	6.004694e-10	-0.027577266	0.027577266	0	NaN	NaN	NaN	NaN	NaN	NaN	0	1e-07
0	0.42422637	-0.21298775	2.2501586e-11	0.7116908	-0.69955647	1.3938775e-10	0.7094587	-0.701272	1.9483727e-10	0.6794704	0.7304546	-2.7263658e-10	-0.029698404	0.029698404	0	NaN	NaN	NaN	NaN	NaN	NaN	0	1e-07
0	0.42352483	-0.21230046	1.6566179e-10	0.71170396	-0.6995275	5.7395266e-10	0.70946395	-0.7012465	4.7777915e-10	0.6778455	0.7319577	1.2766939e-12	-0.03181981	0.03181981	0	NaN	NaN	NaN	NaN	NaN	NaN	0	1e-07
0	0.42282245	-0.21161371	-1.5614299e-10	0.7117171	-0.6994984	-3.7127917e-10	0.7094693	-0.70122087	-1.3890031e-11	0.67621636	0.7334573	-3.5435088e-10	-0.033941183	0.033941183	0	NaN	NaN	NaN	NaN	NaN	NaN	0	1e-07
0	0.42211917	-0.21092747	3.0156166e-11	0.7117301	-0.69946915	4.6968623e-11	0.7094746	-0.701195	1.4402762e-10	0.6745833	0.7349536	-3.5638523e-11	-0.036062334	0.036062334	0	NaN	NaN	NaN	NaN	NaN	NaN	0	1e-07
0	0.4214151	-0.2102418	2.6101968e-10	0.71174335	-0.69943976	3.527752e-10	0.70947975	-0.70116895	4.177906e-10	0.6729459	0.73644644	6.465342e-10	-0.038183797	0.038183797	0	NaN	NaN	NaN	NaN	NaN	NaN	0	1e-07
0	0.42071006	-0.20955667	2.2351239e-10	0.7117564	-0.69941026	5.0075624e-11	0.7094849	-0.7011427	2.2930009e-10	0.6713045	0.73793584	6.918955e-10	-0.040305134	0.040305134	0	NaN	NaN	NaN	NaN	NaN	NaN	0	1e-07
0	0.4200042	-0.20887202	-5.5813715e-11	0.71176964	-0.69938046	-2.9287767e-10	0.70948994	-0.7011163	7.0060555e-11	0.6696589	0.73942184	-1.0339706e-10	-0.042426378	0.042426378	0	NaN	NaN	NaN	NaN	NaN	NaN	0	1e-07
0	0.4192974	-0.20818788	-6.893394e-11	0.71178275	-0.6993506	5.012476e-10	0.70949495	-0.7010897	-4.662943e-10	0.66800904	0.7409045	-6.009538e-11	-0.044547766	0.044547766	0	NaN	NaN	NaN	NaN	NaN	NaN	0	1e-07
0	0.41858968	-0.20750427	-3.3528128e-11	0.7117959	-0.6993205	1.7983909e-10	0.7094999	-0.7010629	-1.408302e-10	0.66635495	0.74238384	-2.932653e-10	-0.04666901	0.04666901	0	NaN	NaN	NaN	NaN	NaN	NaN	0	1e-07
0	0.417881	-0.20682116	-6.6956204e-11	0.711809	-0.6992903	-7.6516643e-10	0.7095047	-0.701036	1.3978298e-10	0.66469675	0.7438597	2.1716878e-10	-0.048790272	0.048790272	0	NaN	NaN	NaN	NaN	NaN	NaN	0	1e-07
0	0.4171715	-0.20613855	1.8163163e-10	0.71182215	-0.6992597	-3.1599484e-10	0.70950955	-0.70100886	-2.2808498e-11	0.6630341	0.7453322	6.011956e-10	-0.050911836	0.050911836	0	NaN	NaN	NaN	NaN	NaN	NaN	0	1e-07
0	0.416461	-0.2054564	4.541456e-11	0.71183527	-0.6992291	-4.720244e-10	0.7095144	-0.70098156	2.9361097e-10	0.6613673	0.74680144	5.06817e-10	-0.05303293	0.05303293	0	NaN	NaN	NaN	NaN	NaN	NaN	0	1e-07
0	0.4157496	-0.20477474	-6.713117e-11	0.71184844	-0.6991983	-7.9460927e-10	0.709519	-0.70095396	-8.706964e-11	0.65969604	0.7482674	3.3189537e-10	-0.055154532	0.055154532	0	NaN	NaN	NaN	NaN	NaN	NaN	0	1e-07
0	0.41503718	-0.20409355	-1.2805793e-10	0.7118615	-0.6991674	1.1672932e-10	0.7095236	-0.7009262	-2.7597832e-10	0.65802044	0.74973005	-4.9378485e-10	-0.05727572	0.05727572	0	NaN	NaN	NaN	NaN	NaN	NaN	0	1e-07
0	0.41432378	-0.20341282	-1.5701049e-10	0.7118746	-0.69913614	1.8760505e-12	0.7095282	-0.7008983	-1.3051249e-10	0.6563404	0.7511893	-4.0871326e-10	-0.059396807	0.059396807	0	NaN	NaN	NaN	NaN	NaN	NaN	0	1e-07
0	0.41360945	-0.20273256	8.3733444e-11	0.7118878	-0.6991048	9.6599e-10	0.70953256	-0.7008701	2.069989e-10	0.654656	0.75264525	-2.472658e-10	-0.06151844	0.06151844	0	NaN	NaN	NaN	NaN	NaN	NaN	0	1e-07
0	0.4128941	-0.20205279	2.1055424e-10	0.71190083	-0.69907314	2.0490114e-10	0.709537	-0.7008418	1.1998923e-10	0.6529672	0.754098	4.770383e-10	-0.06363962	0.06363962	0	NaN	NaN	NaN	NaN	NaN	NaN	0	1e-07
0	0.41217774	-0.20137341	2.1688466e-10	0.7119139	-0.69904137	4.0502032e-10	0.70954126	-0.7008132	2.917743e-10	0.65127385	0.75554746	1.8415682e-11	-0.06576084	0.06576084	0	NaN	NaN	NaN	NaN	NaN	NaN	0	1e-07
0	0.4114604	-0.2006945	-1.009458e-10	0.71192694	-0.6990094	-4.8021337e-10	0.7095455	-0.7007843	-1.4416097e-10	0.649576	0.75699365	2.711369e-10	-0.06788237	0.06788237	0	NaN	NaN	NaN	NaN	NaN	NaN	0	1e-07
0	0.41074198	-0.20001604	-6.9789494e-11	0.71194005	-0.69897723	-1.8297047e-10	0.70954967	-0.70075536	-1.4468907e-10	0.64787364	0.7584366	2.7322174e-11	-0.07000352	0.07000352	0	NaN	NaN	NaN	NaN	NaN	NaN	0	1e-07
0	0.41002253	-0.19933796	1.6760118e-10	0.711953	-0.69894487	7.272377e-10	0.7095537	-0.70072603	4.3759874e-10	0.6461667	0.75987625	-3.6912952e-11	-0.07212467	0.07212467	0	NaN	NaN	NaN	NaN	NaN	NaN	0	1e-07
0	0.40930206	-0.19866036	-3.0359215e-11	0.7119661	-0.6989123	-2.3097224e-10	0.7095576	-0.7006966	-1.878465e-10	0.6444551	0.7613127	1.7468879e-12	-0.074246205	0.074246205	0	NaN	NaN	NaN	NaN	NaN	NaN	0	1e-07
0	0.40858054	-0.19798315	5.921936e-11	0.7119791	-0.6988794	-3.7621125e-11	0.70956147	-0.70066684	2.93106e-10	0.64273894	0.7627459	-3.404522e-10	-0.076367594	0.076367594	0	NaN	NaN	NaN	NaN	NaN	NaN	0	1e-07
0	0.40785787	-0.19730636	2.7853341e-11	0.7119921	-0.6988465	4.3529158e-10	0.7095652	-0.700637	6.955327e-11	0.64101815	0.76417595	-6.9032237e-13	-0.07848912	0.07848912	0	NaN	NaN	NaN	NaN	NaN	NaN	0	1e-07
0	0.4071342	-0.19662996	3.419685e-11	0.712005	-0.69881326	1.4413101e-11	0.70956886	-0.7006067	-3.209783e-10	0.6392926	0.76560277	3.2605083e-10	-0.08061027	0.08061027	0	NaN	NaN	NaN	NaN	NaN	NaN	0	1e-07
0	0.40640938	-0.19595398	1.3437222e-12	0.712018	-0.6987798	-3.8842163e-10	0.70957243	-0.7005763	-2.4302724e-10	0.6375623	0.7670263	5.668485e-10	-0.08273137	0.08273137	0	NaN	NaN	NaN	NaN	NaN	NaN	0	1e-07
0	0.4056835	-0.19527836	-5.1929735e-11	0.7120309	-0.69874614	-2.412897e-10	0.7095759	-0.7005455	-1.0364155e-10	0.6358273	0.7684467	-1.4664349e-10	-0.084852755	0.084852755	0	NaN	NaN	NaN	NaN	NaN	NaN	0	1e-07
0	0.40495646	-0.19460315	-1.1759745e-10	0.71204376	-0.69871217	-1.9518945e-10	0.7095792	-0.7005147	-3.013609e-10	0.6340875	0.76986396	8.4858835e-11	-0.08697386	0.08697386	0	NaN	NaN	NaN	NaN	NaN	NaN	0	1e-07
0	0.4042283	-0.19392833	1.5980028e-11	0.7120565	-0.69867814	-4.354058e-10	0.70958245	-0.70048344	2.8630137e-10	0.6323428	0.7712779	3.8364859e-10	-0.08909553	0.08909553	0	NaN	NaN	NaN	NaN	NaN	NaN	0	1e-07
0	0.403499	-0.19325389	-1.2353198e-10	0.71206945	-0.69864374	-4.2093447e-11	0.7095856	-0.70045197	-3.3321085e-10	0.63059336	0.7726886	2.8291375e-10	-0.091216914	0.091216914	0	NaN	NaN	NaN	NaN	NaN	NaN	0	1e-07
0	0.40276858	-0.19257978	-1.07561154e-10	0.7120822	-0.6986091	9.688996e-11	0.70958847	-0.70042014	1.8766129e-10	0.628839	0.77409637	-8.948301e-11	-0.09333802	0.09333802	0	NaN	NaN	NaN	NaN	NaN	NaN	0	1e-07
0	0.4020369	-0.19190608	-4.2540988e-11	0.71209496	-0.69857436	-5.114604e-10	0.7095914	-0.7003882	8.3975056e-11	0.6270796	0.77550083	6.7677405e-11	-0.09545915	0.09545915	0	NaN	NaN	NaN	NaN	NaN	NaN	0	1e-07
0	0.40130407	-0.1912327	-1.2400363e-10	0.71210766	-0.6985393	-4.3285986e-10	0.7095941	-0.7003559	4.19498e-11	0.62531525	0.77690214	1.3944847e-10	-0.097580545	0.097580545	0	NaN	NaN	NaN	NaN	NaN	NaN	0	1e-07
0	0.40057	-0.19055966	-3.2591086e-11	0.7121204	-0.6985039	-7.1123336e-11	0.7095966	-0.70032334	-2.4742577e-10	0.6235459	0.77830034	7.5836787e-10	-0.09970227	0.09970227	0	NaN	NaN	NaN	NaN	NaN	NaN	0	1e-07
0	0.39983478	-0.18988699	3.484548e-11	0.71213305	-0.6984683	8.793648e-12	0.70959914	-0.7002904	3.842981e-11	0.6217716	0.7796954	1.4786106e-11	-0.10182367	0.10182367	0	NaN	NaN	NaN	NaN	NaN	NaN	0	1e-07
0	0.39909834	-0.18921466	1.2793874e-10	0.71214557	-0.6984325	4.2114812e-10	0.7096014	-0.7002573	4.211418e-11	0.61999214	0.78108716	2.9316474e-10	-0.10394477	0.10394477	0	NaN	NaN	NaN	NaN	NaN	NaN	0	1e-07
0	0.39836064	-0.18854266	9.776907e-12	0.7121581	-0.6983963	1.1169077e-10	0.70960355	-0.7002238	4.4578397e-11	0.6182076	0.7824759	-6.9022175e-13	-0.10606586	0.10606586	0	NaN	NaN	NaN	NaN	NaN	NaN	0	1e-07
0	0.39762166	-0.187871	7.086652e-11	0.71217066	-0.69835997	3.3396655e-10	0.7096056	-0.70019	4.6761095e-11	0.6164178	0.7838614	-7.526627e-13	-0.108187154	0.108187154	0	NaN	NaN	NaN	NaN	NaN	NaN	0	1e-07
0	0.3968814	-0.18719961	-2.7468519e-11	0.712183	-0.69832337	3.919484e-10	0.70960736	-0.700156	-7.286352e-11	0.6146229	0.7852438	-2.1644374e-11	-0.110309064	0.110309064	0	NaN	NaN	NaN	NaN	NaN	NaN	0	1e-07
0	0.3961399	-0.18652858	-1.5440794e-10	0.7121954	-0.6982864	-6.077677e-11	0.70960915	-0.7001215	-3.364784e-10	0.6128228	0.7866231	-7.477726e-11	-0.11243016	0.11243016	0	NaN	NaN	NaN	NaN	NaN	NaN	0	1e-07
0	0.395397	-0.18585785	8.60969e-11	0.7122076	-0.6982492	6.3778145e-12	0.7096106	-0.7000868	3.942098e-11	0.6110173	0.78799915	9.0125137e-11	-0.11455144	0.11455144	0	NaN	NaN	NaN	NaN	NaN	NaN	0	1e-07
0	0.39465284	-0.18518741	-9.2222154e-11	0.7122199	-0.6982118	2.6561628e-10	0.70961183	-0.70005167	1.4522695e-11	0.60920656	0.78937227	-6.655835e-10	-0.11667252	0.11667252	0	NaN	NaN	NaN	NaN	NaN	NaN	0	1e-07
0	0.39390734	-0.18451728	1.276539e-10	0.712232	-0.69817406	9.1019353e-10	0.709613	-0.70001614	5.922927e-11	0.6073904	0.79074216	-2.7914665e-10	-0.118793614	0.118793614	0	NaN	NaN	NaN	NaN	NaN	NaN	0	1e-07
0	0.39316052	-0.18384743	-4.0392214e-11	0.7122441	-0.69813603	-4.578866e-10	0.7096139	-0.6999803	2.4463188e-11	0.605569	0.79210883	-7.579786e-11	-0.12091493	0.12091493	0	NaN	NaN	NaN	NaN	NaN	NaN	0	1e-07
0	0.39241236	-0.18317786	-1.2795566e-10	0.712256	-0.6980976	-6.930168e-10	0.70961475	-0.6999442	-1.9504993e-10	0.60374206	0.79347247	3.9877088e-11	-0.12303688	0.12303688	0	NaN	NaN	NaN	NaN	NaN	NaN	0	1e-07
0	0.39166275	-0.18250856	1.4126414e-10	0.71226794	-0.69805896	-3.0773266e-11	0.7096152	-0.69990766	-1.3471034e-10	0.60190964	0.79483294	5.0200576e-11	-0.12515819	0.12515819	0	NaN	NaN	NaN	NaN	NaN	NaN	0	1e-07
0	0.39091173	-0.18183956	-1.2636041e-10	0.71227974	-0.69802	-6.526666e-10	0.7096155	-0.6998708	-2.1783782e-10	0.60007167	0.7961903	2.0879917e-10	-0.12727924	0.12727924	0	NaN	NaN	NaN	NaN	NaN	NaN	0	1e-07
0	0.39015937	-0.18117079	-5.8302356e-11	0.7122914	-0.6979807	-2.1729994e-10	0.7096157	-0.6998335	-1.9529849e-10	0.5982281	0.7975445	1.9346776e-10	-0.12940039	0.12940039	0	NaN	NaN	NaN	NaN	NaN	NaN	0	1e-07
0	0.38940552	-0.18050231	2.7329023e-11	0.71230304	-0.69794106	3.8134243e-10	0.7096155	-0.69979584	3.298301e-10	0.596379	0.79889554	-7.68233e-11	-0.13152169	0.13152169	0	NaN	NaN	NaN	NaN	NaN	NaN	0	1e-07
0	0.3886502	-0.17983405	-7.520902e-12	0.71231437	-0.6979011	-2.8831756e-10	0.7096152	-0.6997577	1.02129225e-11	0.5945242	0.8002435	2.4854927e-11	-0.13364364	0.13364364	0	NaN	NaN	NaN	NaN	NaN	NaN	0	1e-07
0	0.38789347	-0.17916606	-1.3646344e-12	0.7123258	-0.6978609	3.85973e-11	0.7096145	-0.6997192	4.6780524e-11	0.59266365	0.8015884	-3.6105702e-10	-0.13576473	0.13576473	0	NaN	NaN	NaN	NaN	NaN	NaN	0	1e-07
0	0.38713518	-0.1784983	3.617342e-11	0.712337	-0.69782025	1.11627554e-10	0.7096137	-0.6996802	7.087847e-11	0.5907974	0.80293006	-1.6399154e-10	-0.13788603	0.13788603	0	NaN	NaN	NaN	NaN	NaN	NaN	0	1e-07
0	0.3863754	-0.17783076	1.8428774e-10	0.71234816	-0.69777924	9.41692e-10	0.7096125	-0.6996408	2.7926125e-11	0.5889253	0.8042686	9.49473e-11	-0.14000703	0.14000703	0	NaN	NaN	NaN	NaN	NaN	NaN	0	1e-07
0	0.38561416	-0.17716344	1.4362969e-10	0.712359	-0.69773793	6.9181305e-10	0.70961106	-0.69960093	4.108154e-10	0.5870475	0.80560404	-5.545866e-10	-0.1421281	0.1421281	0	NaN	NaN	NaN	NaN	NaN	NaN	0	1e-07
0	0.38485128	-0.17649636	1.0590671e-10	0.7123698	-0.69769627	4.0267047e-11	0.7096093	-0.6995607	2.225538e-10	0.58516365	0.8069364	-1.7567553e-10	-0.14424933	0.14424933	0	NaN	NaN	NaN	NaN	NaN	NaN	0	1e-07
0	0.38408688	-0.17582946	-7.2125383e-12	0.71238047	-0.6976542	-2.682699e-10	0.7096073	-0.69951975	-3.2460788e-11	0.58327395	0.80826545	4.2176533e-11	-0.14637119	0.14637119	0	NaN	NaN	NaN	NaN	NaN	NaN	0	1e-07
0	0.38332087	-0.17516276	-1.4563956e-10	0.71239084	-0.69761175	-4.1419254e-10	0.70960504	-0.6994785	-5.0196863e-10	0.58137816	0.80959135	-8.684784e-11	-0.14849241	0.14849241	0	NaN	NaN	NaN	NaN	NaN	NaN	0	1e-07
0	0.38255325	-0.17449628	-5.109754e-11	0.7124011	-0.6975688	1.09868684e-10	0.7096023	-0.69943666	2.2401346e-10	0.5794764	0.8109142	-3.731093e-10	-0.15061344	0.15061344	0	NaN	NaN	NaN	NaN	NaN	NaN	0	1e-07
0	0.38178396	-0.17382997	-3.3194783e-10	0.71241105	-0.6975257	-6.9080835e-10	0.7095993	-0.69939435	-1.5235806e-10	0.5775686	0.8122338	-5.912106e-10	-0.15273519	0.15273519	0	NaN	NaN	NaN	NaN	NaN	NaN	0	1e-07
0	0.38101307	-0.17316382	-1.079386e-10	0.71242094	-0.697482	1.2163977e-10	0.70959586	-0.69935143	-1.3615867e-10	0.57565457	0.81355035	-3.0350078e-10	-0.15485643	0.15485643	0	NaN	NaN	NaN	NaN	NaN	NaN	0	1e-07
0	0.38024044	-0.17249787	-1.7585901e-10	0.71243054	-0.69743794	-3.3364922e-10	0.70959204	-0.6993079	-3.9359566e-10	0.57373446	0.81486374	-2.7913818e-10	-0.15697823	0.15697823	0	NaN	NaN	NaN	NaN	NaN	NaN	0	1e-07
0	0.37946615	-0.17183205	-1.3999985e-11	0.71243984	-0.6973934	2.2280369e-10	0.709588	-0.699264	1.192867e-10	0.5718081	0.81617385	-2.8232858e-10	-0.1590993	0.1590993	0	NaN	NaN	NaN	NaN	NaN	NaN	0	1e-07
0	0.37869015	-0.17116639	1.5127698e-10	0.7124489	-0.6973484	-2.1784922e-10	0.70958334	-0.6992193	2.3961527e-10	0.5698753	0.8174807	-1.1969485e-10	-0.16122054	0.16122054	0	NaN	NaN	NaN	NaN	NaN	NaN	0	1e-07
0	0.37791237	-0.17050087	1.6139212e-10	0.7124576	-0.6973031	-1.6918238e-10	0.70957834	-0.69917405	3.3497619e-10	0.56793624	0.81878453	1.8793385e-10	-0.16334154	0.16334154	0	NaN	NaN	NaN	NaN	NaN	NaN	0	1e-07
0	0.3771328	-0.1698355	9.124645e-11	0.71246606	-0.69725734	6.374848e-11	0.70957285	-0.6991281	4.802135e-10	0.56599087	0.8200852	-3.1629568e-10	-0.16546275	0.16546275	0	NaN	NaN	NaN	NaN	NaN	NaN	0	1e-07
0	0.3763514	-0.16917023	-6.8894834e-11	0.7124742	-0.6972109	-5.033376e-10	0.709567	-0.69908154	-1.7607906e-11	0.56403893	0.8213825	2.4155018e-11	-0.16758382	0.16758382	0	NaN	NaN	NaN	NaN	NaN	NaN	0	1e-07
0	0.37556815	-0.16850509	7.466378e-11	0.7124819	-0.697164	1.924971e-10	0.7095605	-0.6990342	-1.6912913e-10	0.5620805	0.8226767	2.4459562e-10	-0.16970551	0.16970551	0	NaN	NaN	NaN	NaN	NaN	NaN	0	1e-07
0	0.37478307	-0.16784002	3.0684944e-11	0.7124893	-0.69711673	-1.9271004e-10	0.7095535	-0.69898623	3.1779787e-10	0.5601155	0.82396764	-3.2175076e-10	-0.17182672	0.17182672	0	NaN	NaN	NaN	NaN	NaN	NaN	0	1e-07
0	0.3739961	-0.16717502	-1.7770907e-10	0.7124962	-0.69706887	-8.7995835e-12	0.70954597	-0.6989374	-2.5357502e-10	0.5581439	0.8252554	5.0413812e-11	-0.17394772	0.17394772	0	NaN	NaN	NaN	NaN	NaN	NaN	0	1e-07
0	0.37320724	-0.16651012	-6.747671e-11	0.71250266	-0.6970205	-3.967596e-10	0.7095378	-0.6988879	-1.118058e-10	0.5561657	0.8265398	1.9780906e-10	-0.17606987	0.17606987	0	NaN	NaN	NaN	NaN	NaN	NaN	0	1e-07
0	0.37241638	-0.16584529	6.153247e-11	0.7125087	-0.69697154	2.5498165e-10	0.70952904	-0.6988375	8.375467e-11	0.5541807	0.8278211	9.1435616e-11	-0.17819107	0.17819107	0	NaN	NaN	NaN	NaN	NaN	NaN	0	1e-07
0	0.3716235	-0.16518049	2.2650665e-10	0.71251404	-0.696922	9.0777086e-10	0.7095197	-0.69878626	1.9552096e-10	0.5521889	0.82909894	2.3936778e-10	-0.18031277	0.18031277	0	NaN	NaN	NaN	NaN	NaN	NaN	0	1e-07
0	0.37082854	-0.1645157	5.8313883e-12	0.71251875	-0.6968718	-2.323198e-10	0.7095095	-0.69873405	5.7711523e-11	0.55019027	0.8303737	-1.5735933e-10	-0.18243383	0.18243383	0	NaN	NaN	NaN	NaN	NaN	NaN	0	1e-07
0	0.37003154	-0.16385095	-4.6276025e-11	0.7125229	-0.6968211	-1.6992267e-10	0.7094987	-0.698681	-1.3497609e-10	0.5481847	0.8316451	-1.8219896e-10	-0.18455504	0.18455504	0	NaN	NaN	NaN	NaN	NaN	NaN	0	1e-07
0	0.3692324	-0.16318615	2.5533292e-11	0.7125262	-0.6967697	1.5347329e-10	0.70948696	-0.6986269	3.9822156e-11	0.54617214	0.8329132	1.4373699e-11	-0.18667604	0.18667604	0	NaN	NaN	NaN	NaN	NaN	NaN	0	1e-07
0	0.36843112	-0.16252135	4.8979876e-11	0.7125288	-0.69671756	3.6855063e-10	0.70947444	-0.69857174	3.0556843e-10	0.5441527	0.83417803	-3.3149886e-10	-0.18879724	0.18879724	0	NaN	NaN	NaN	NaN	NaN	NaN	0	1e-07
0	0.36762756	-0.16185647	2.884287e-10	0.7125305	-0.69666475	4.536924e-10	0.70946103	-0.6985155	3.2488004e-10	0.542126	0.8354394	2.346765e-10	-0.1909183	0.1909183	0	NaN	NaN	NaN	NaN	NaN	NaN	0	1e-07
0	0.36682177	-0.16119152	-2.9942876e-10	0.7125311	-0.69661117	-1.0767782e-09	0.70944667	-0.698458	-4.039765e-10	0.54009235	0.8366975	1.8522066e-10	-0.19303991	0.19303991	0	NaN	NaN	NaN	NaN	NaN	NaN	0	1e-07
0	0.36601362	-0.16052648	3.026799e-10	0.7125305	-0.69655675	6.980836e-11	0.7094313	-0.6983993	1.1270273e-10	0.53805137	0.83795226	9.0961e-10	-0.19516109	0.19516109	0	NaN	NaN	NaN	NaN	NaN	NaN	0	1e-07
0	0.36520305	-0.15986128	8.0709675e-12	0.7125287	-0.69650155	2.2720963e-10	0.70941466	-0.69833934	-5.5229217e-11	0.5360031	0.8392036	-2.6961215e-11	-0.19728209	0.19728209	0	NaN	NaN	NaN	NaN	NaN	NaN	0	1e-07
0	0.36439005	-0.15919593	-4.8346775e-11	0.7125254	-0.69644547	-2.1630647e-10	0.709397	-0.6982779	-3.1981424e-11	0.5339476	0.84045166	-4.4893095e-12	-0.19940454	0.19940454	0	NaN	NaN	NaN	NaN	NaN	NaN	0	1e-07
0	0.36357448	-0.15853034	2.0696621e-12	0.71252054	-0.69638836	5.309306e-10	0.7093779	-0.6982149	-1.7038915e-10	0.5318846	0.84169614	-2.6805691e-11	-0.2015257	0.2015257	0	NaN	NaN	NaN	NaN	NaN	NaN	0	1e-07
0	0.36275625	-0.15786448	1.6215067e-10	0.7125137	-0.69633013	1.4601031e-10	0.7093574	-0.6981503	3.940096e-10	0.5298143	0.84293723	3.646389e-11	-0.20364735	0.20364735	0	NaN	NaN	NaN	NaN	NaN	NaN	0	1e-07
0	0.3619352	-0.15719831	-9.978322e-11	0.71250457	-0.6962707	-1.5641381e-10	0.7093353	-0.6980839	-1.1939888e-10	0.5277364	0.84417504	9.388699e-11	-0.20576836	0.20576836	0	NaN	NaN	NaN	NaN	NaN	NaN	0	1e-07
0	0.36111134	-0.15653178	-2.8166325e-11	0.7124929	-0.69621015	1.7732463e-10	0.7093114	-0.69801563	-1.3134555e-10	0.52565104	0.84540915	9.731835e-12	-0.20788954	0.20788954	0	NaN	NaN	NaN	NaN	NaN	NaN	0	1e-07
0	0.3602844	-0.15586476	-1.7204847e-10	0.7124783	-0.69614804	-1.386378e-09	0.70928574	-0.69794506	-2.2148204e-10	0.52355796	0.84663993	2.364927e-10	-0.21001054	0.21001054	0	NaN	NaN	NaN	NaN	NaN	NaN	0	1e-07
0	0.35945424	-0.15519719	2.8975902e-10	0.71246	-0.6960845	8.271156e-10	0.7092578	-0.69787234	4.40222e-10	0.52145725	0.8478671	-1.5376407e-10	-0.21213172	0.21213172	0	NaN	NaN	NaN	NaN	NaN	NaN	0	1e-07
0	0.35862064	-0.15452896	-4.7701534e-11	0.71243733	-0.69601893	-2.7028155e-10	0.70922744	-0.697797	9.24828e-11	0.5193488	0.84909075	-2.5889605e-12	-0.21425274	0.21425274	0	NaN	NaN	NaN	NaN	NaN	NaN	0	1e-07
0	0.35778332	-0.15385994	9.7492174e-11	0.712409	-0.6959513	6.871831e-10	0.7091942	-0.6977188	6.15262e-11	0.5172326	0.8503108	1.9498086e-12	-0.21637431	0.21637431	0	NaN	NaN	NaN	NaN	NaN	NaN	0	1e-07
0	0.35694173	-0.15318996	3.01401e-10	0.7123731	-0.69588107	1.1553246e-09	0.70915776	-0.6976373	3.8102382e-10	0.51510864	0.8515273	-1.8920901e-10	-0.21849546	0.21849546	0	NaN	NaN	NaN	NaN	NaN	NaN	0	1e-07
0	0.356095	-0.15251866	8.164586e-11	0.71232504	-0.6958071	7.9781537e-10	0.70911735	-0.69755214	-9.1773214e-11	0.51297677	0.85274005	-1.8552651e-10	-0.22061813	0.22061813	0	NaN	NaN	NaN	NaN	NaN	NaN	0	1e-07
0	0.3552407	-0.15184547	2.382346e-09	0.7122513	-0.6957266	1.5719024e-08	0.70907205	-0.69746274	1.7848874e-10	0.51083726	0.8539491	-3.6727302e-10	-0.22273919	0.22273919	0	NaN	NaN	NaN	NaN	NaN	NaN	0	1e-07
0	-0.30432484	0.5018238	-5.201288e-11	-0.70719296	0.7052196	-4.7389503e-10	-0.70644486	0.70572203	-2.9207797e-10	0.51133907	0.85397774	-8.2569396e-10	-0.22486033	0.22486033	0	NaN	NaN	NaN	NaN	NaN	NaN	0	1e-07
0	-0.30514333	0.50246614	-2.307079e-10	-0.7071886	0.7052302	-2.6551067e-10	-0.7064437	0.70573086	-6.3487154e-10	0.5092256	0.85517216	1.2775203e-10	-0.22698186	0.22698186	0	NaN	NaN	NaN	NaN	NaN	NaN	0	1e-07
0	-0.30596375	0.5031081	1.1235013e-10	-0.7071843	0.70524067	2.3174472e-10	-0.7064425	0.70573974	2.0758412e-10	0.5071046	0.85636294	-1.185201e-11	-0.22910288	0.22910288	0	NaN	NaN	NaN	NaN	NaN	NaN	0	1e-07
0	-0.30678615	0.50374985	1.3797168e-11	-0.70718	0.70525116	-2.337506e-10	-0.7064414	0.7057485	-8.336737e-11	0.50497574	0.85755014	-5.891162e-11	-0.23122405	0.23122405	0	NaN	NaN	NaN	NaN	NaN	NaN	0	1e-07
0	-0.3076105	0.50439113	8.405048e-11	-0.7071757	0.7052616	3.431796e-10	-0.70644027	0.70575726	1.6162012e-10	0.50283915	0.85873383	-2.6010702e-10	-0.23334505	0.23334505	0	NaN	NaN	NaN	NaN	NaN	NaN	0	1e-07
0	-0.30843687	0.5050321	1.01007966e-10	-0.7071713	0.70527196	-3.1174058e-10	-0.70643914	0.70576596	2.5778762e-10	0.50069475	0.8599139	2.2639696e-10	-0.23546621	0.23546621	0	NaN	NaN	NaN	NaN	NaN	NaN	0	1e-07
0	-0.30926523	0.50567275	6.775782e-11	-0.70716697	0.7052824	1.8051444e-10	-0.7064379	0.70577466	6.6066604e-11	0.49854252	0.8610904	2.0842382e-10	-0.23758723	0.23758723	0	NaN	NaN	NaN	NaN	NaN	NaN	0	1e-07
0	-0.31009564	0.506313	-2.3990008e-11	-0.7071627	0.70529264	-1.3861899e-10	-0.70643675	0.70578325	-1.844158e-10	0.4963823	0.8622632	-6.391998e-11	-0.23970875	0.23970875	0	NaN	NaN	NaN	NaN	NaN	NaN	0	1e-07
0	-0.31092808	0.5069529	1.1876757e-10	-0.7071583	0.7053029	2.1853816e-10	-0.7064357	0.7057918	2.5008257e-10	0.49421415	0.8634324	2.573871e-11	-0.24182986	0.24182986	0	NaN	NaN	NaN	NaN	NaN	NaN	0	1e-07
0	-0.3117625	0.50759256	-9.69791e-11	-0.707154	0.70531315	-9.7970854e-11	-0.7064346	0.70580035	-1.08391844e-10	0.492038	0.8645979	-6.055878e-11	-0.24395274	0.24395274	0	NaN	NaN	NaN	NaN	NaN	NaN	0	1e-07
0	-0.31259903	0.5082317	-7.620708e-11	-0.70714974	0.70532334	-4.1700943e-10	-0.7064334	0.7058088	-1.0388152e-10	0.48985383	0.8657596	-2.1197225e-10	-0.24607375	0.24607375	0	NaN	NaN	NaN	NaN	NaN	NaN	0	1e-07
0	-0.3134376	0.5088706	-3.9918572e-11	-0.70714545	0.7053335	-2.2814375e-10	-0.7064323	0.70581716	1.103843e-10	0.48766148	0.86691767	1.9859286e-10	-0.24819492	0.24819492	0	NaN	NaN	NaN	NaN	NaN	NaN	0	1e-07
0	-0.31427827	0.5095091	-1.0219178e-10	-0.7071411	0.7053436	-2.4608948e-10	-0.70643115	0.70582557	-2.6637656e-10	0.48546097	0.8680719	-3.957781e-12	-0.25031638	0.25031638	0	NaN	NaN	NaN	NaN	NaN	NaN	0	1e-07
0	-0.31512105	0.5101472	4.776715e-11	-0.70713687	0.7053537	-1.9050879e-10	-0.70643	0.7058339	-1.5657249e-10	0.4832523	0.8692223	2.2546734e-10	-0.2524375	0.2524375	0	NaN	NaN	NaN	NaN	NaN	NaN	0	1e-07
0	-0.3159659	0.5107849	3.2256406e-11	-0.7071326	0.7053637	3.4986694e-11	-0.7064289	0.705842	-5.92478e-11	0.48103538	0.870369	1.6274536e-10	-0.25455847	0.25455847	0	NaN	NaN	NaN	NaN	NaN	NaN	0	1e-07
0	-0.3168129	0.5114223	-2.0347078e-10	-0.7071282	0.70537376	-3.1018457e-10	-0.7064278	0.7058504	-4.9869225e-10	0.47881016	0.8715119	2.5011682e-10	-0.25667965	0.25667965	0	NaN	NaN	NaN	NaN	NaN	NaN	0	1e-07
0	-0.317662	0.5120593	6.414232e-11	-0.70712394	0.7053837	3.9432746e-10	-0.7064267	0.7058585	1.5487839e-10	0.47657666	0.87265074	-3.9814882e-10	-0.25880077	0.25880077	0	NaN	NaN	NaN	NaN	NaN	NaN	0	1e-07
0	-0.31851318	0.5126959	-1.7500926e-10	-0.7071197	0.7053937	-1.13718195e-10	-0.7064255	0.70586663	-2.605359e-10	0.47433478	0.87378585	-1.9467272e-10	-0.26092187	0.26092187	0	NaN	NaN	NaN	NaN	NaN	NaN	0	1e-07
0	-0.31936657	0.51333207	2.2533092e-10	-0.70711553	0.70540345	5.3438537e-10	-0.7064244	0.70587474	3.2968678e-10	0.47208443	0.8749169	-5.09792e-11	-0.26304337	0.26304337	0	NaN	NaN	NaN	NaN	NaN	NaN	0	1e-07
0	-0.32022214	0.5139679	-1.6638602e-10	-0.70711124	0.70541346	-5.625398e-10	-0.70642334	0.7058828	-1.6863937e-10	0.4698258	0.87604403	-2.2583081e-10	-0.2651645	0.2651645	0	NaN	NaN	NaN	NaN	NaN	NaN	0	1e-07
0	-0.32107988	0.5146033	3.5577576e-11	-0.70710695	0.7054232	-4.7736926e-10	-0.7064222	0.7058908	1.7091362e-10	0.4675586	0.87716734	3.0293917e-10	-0.26728728	0.26728728	0	NaN	NaN	NaN	NaN	NaN	NaN	0	1e-07
0	-0.32193974	0.51523834	-1.3629026e-10	-0.7071028	0.70543295	5.177852e-10	-0.70642114	0.70589864	-2.5565497e-10	0.46528286	0.8782866	-3.861043e-10	-0.26940835	0.26940835	0	NaN	NaN	NaN	NaN	NaN	NaN	0	1e-07
0	-0.3228018	0.51587296	-1.12134024e-10	-0.7070984	0.7054427	-5.3678195e-12	-0.70642006	0.70590657	-1.5043022e-10	0.46299863	0.87940174	-2.534572e-10	-0.27152947	0.27152947	0	NaN	NaN	NaN	NaN	NaN	NaN	0	1e-07
0	-0.3236661	0.51650715	6.0735174e-11	-0.7070943	0.7054524	2.576805e-10	-0.70641893	0.70591444	2.3544902e-10	0.46070567	0.8805129	2.5255745e-10	-0.2736509	0.2736509	0	NaN	NaN	NaN	NaN	NaN	NaN	0	1e-07
0	-0.3245326	0.517141	9.137276e-11	-0.70708996	0.7054621	5.6402133e-10	-0.7064179	0.70592225	3.529635e-11	0.45840415	0.88162005	-7.24758e-12	-0.27577206	0.27577206	0	NaN	NaN	NaN	NaN	NaN	NaN	0	1e-07
0	-0.32540128	0.51777434	-1.4698054e-10	-0.7070858	0.7054718	-2.502128e-10	-0.7064168	0.70593	-3.5890343e-10	0.4560939	0.88272315	3.703383e-10	-0.27789304	0.27789304	0	NaN	NaN	NaN	NaN	NaN	NaN	0	1e-07
0	-0.32627222	0.5184073	-3.347288e-11	-0.70708144	0.7054814	-5.4190298e-11	-0.7064157	0.70593774	1.913159e-10	0.45377493	0.8838221	-3.2626107e-10	-0.28001407	0.28001407	0	NaN	NaN	NaN	NaN	NaN	NaN	0	1e-07
0	-0.32714543	0.51903987	-4.1118758e-11	-0.70707726	0.705491	-1.6728813e-10	-0.70641464	0.7059453	-7.161979e-11	0.45144707	0.8849169	-1.3043078e-10	-0.28213522	0.28213522	0	NaN	NaN	NaN	NaN	NaN	NaN	0	1e-07
0	-0.32802093	0.519672	1.2022718e-10	-0.70707303	0.7055005	4.0854234e-10	-0.70641357	0.70595306	-1.4693043e-10	0.4491104	0.88600755	-4.9013016e-11	-0.2842562	0.2842562	0	NaN	NaN	NaN	NaN	NaN	NaN	0	1e-07
0	-0.32889864	0.52030367	8.869291e-11	-0.7070689	0.7055099	-2.4403857e-10	-0.70641255	0.70596063	-1.3661429e-11	0.44676486	0.887094	6.881115e-10	-0.28637764	0.28637764	0	NaN	NaN	NaN	NaN	NaN	NaN	0	1e-07
0	-0.32977873	0.52093494	1.446456e-10	-0.7070647	0.7055195	3.4892159e-10	-0.7064114	0.7059681	4.3980417e-11	0.4444103	0.88817626	-4.490175e-11	-0.28849867	0.28849867	0	NaN	NaN	NaN	NaN	NaN	NaN	0	1e-07
0	-0.33066112	0.5215657	-1.1690567e-10	-0.7070605	0.70552886	-2.8038644e-11	-0.7064104	0.7059756	-2.882558e-10	0.44204673	0.88925433	-1.6996894e-10	-0.29062137	0.29062137	0	NaN	NaN	NaN	NaN	NaN	NaN	0	1e-07
0	-0.33154583	0.52219605	4.5019873e-11	-0.7070563	0.7055383	3.611948e-10	-0.70640934	0.7059831	-1.7676641e-10	0.43967405	0.89032805	-9.7620315e-11	-0.29274237	0.29274237	0	NaN	NaN	NaN	NaN	NaN	NaN	0	1e-07
0	-0.33243293	0.52282596	-2.362241e-11	-0.70705205	0.7055476	2.668679e-10	-0.7064083	0.7059905	-1.2192593e-10	0.43729216	0.89139766	1.219767e-10	-0.29486346	0.29486346	0	NaN	NaN	NaN	NaN	NaN	NaN	0	1e-07
0	-0.3333224	0.5234554	-7.559843e-11	-0.70704794	0.7055569	-1.6616736e-10	-0.70640725	0.7059978	2.0639578e-10	0.43490106	0.8924628	6.9961155e-11	-0.29698482	0.29698482	0	NaN	NaN	NaN	NaN	NaN	NaN	0	1e-07
0	-0.3342142	0.5240844	-3.511572e-10	-0.70704377	0.7055662	-9.2497876e-10	-0.70640624	0.7060052	-4.1944184e-10	0.43250066	0.8935237	-7.401544e-11	-0.2991059	0.2991059	0	NaN	NaN	NaN	NaN	NaN	NaN	0	1e-07
0	-0.33510846	0.52471286	6.713161e-12	-0.7070396	0.70557547	-4.1348775e-11	-0.7064052	0.7060124	-5.443915e-11	0.430091	0.89458025	-2.1629254e-10	-0.30122688	0.30122688	0	NaN	NaN	NaN	NaN	NaN	NaN	0	1e-07
0	-0.33600515	0.5253409	1.4235761e-10	-0.7070355	0.70558476	3.4613948e-10	-0.7064042	0.7060197	-1.055638e-10	0.42767182	0.8956323	-1.4724144e-10	-0.30334926	0.30334926	0	NaN	NaN	NaN	NaN	NaN	NaN	0	1e-07
0	-0.33690426	0.5259685	-2.1698462e-11	-0.70703125	0.7055939	5.823611e-11	-0.7064032	0.7060269	-5.2503595e-11	0.42524317	0.89668	-9.9758424e-11	-0.30547038	0.30547038	0	NaN	NaN	NaN	NaN	NaN	NaN	0	1e-07
0	-0.33780587	0.52659553	-1.4358448e-11	-0.7070272	0.70560306	-1.2733371e-10	-0.7064022	0.70603406	-7.0766504e-11	0.42280498	0.8977232	-1.7442736e-10	-0.3075914	0.3075914	0	NaN	NaN	NaN	NaN	NaN	NaN	0	1e-07