# t (s)	mx ()	my ()	mz ()	m.region32x ()	m.region32y ()	m.region32z ()	m.region33x ()	m.region33y ()	m.region33z ()	m.region34x ()	m.region34y ()	m.region34z ()	B_extx (T)	B_exty (T)	B_extz (T)	B_eff.region6x (T)	B_eff.region6y (T)	B_eff.region6z (T)	B_eff.region9x (T)	B_eff.region9y (T)	B_eff.region9z (T)	step_x (No unit)	step_y (No unit)
0	0.9994853	2.1306334e-09	-1.6573208e-11	0.9994853	2.1306334e-09	-1.6573208e-11	NaN	NaN	NaN	NaN	NaN	NaN	0	0	0	NaN	NaN	NaN	NaN	NaN	NaN	0	1e-07
0	0.9995209	1.12322596e-10	-7.4878784e-11	0.99952096	1.12322596e-10	-7.487878e-11	NaN	NaN	NaN	NaN	NaN	NaN	0.039999973	0	0	NaN	NaN	NaN	NaN	NaN	NaN	0	1e-07
0	0.999552	-1.517435e-10	4.9931937e-11	0.999552	-1.517435e-10	4.9931937e-11	NaN	NaN	NaN	NaN	NaN	NaN	0.079999946	0	0	NaN	NaN	NaN	NaN	NaN	NaN	0	1e-07
0	0.99957937	5.0266635e-10	5.947705e-11	0.99957937	5.0266635e-10	5.947705e-11	NaN	NaN	NaN	NaN	NaN	NaN	0.11999989	0	0	NaN	NaN	NaN	NaN	NaN	NaN	0	1e-07
0	0.9996038	-2.5494273e-11	1.3499163e-10	0.9996038	-2.5494273e-11	1.3499162e-10	NaN	NaN	NaN	NaN	NaN	NaN	0.15999989	0	0	NaN	NaN	NaN	NaN	NaN	NaN	0	1e-07
0	0.9996258	2.7421265e-10	2.8643766e-11	0.99962574	2.7421265e-10	2.8643766e-11	NaN	NaN	NaN	NaN	NaN	NaN	0.20000018	0	0	NaN	NaN	NaN	NaN	NaN	NaN	0	1e-07
0	0.9996456	1.5310775e-10	5.7616883e-11	0.9996456	1.5310775e-10	5.7616883e-11	NaN	NaN	NaN	NaN	NaN	NaN	0.23999979	0	0	NaN	NaN	NaN	NaN	NaN	NaN	0	1e-07
0	0.9996635	2.7003466e-10	6.1243746e-11	0.9996635	2.7003466e-10	6.1243746e-11	NaN	NaN	NaN	NaN	NaN	NaN	0.28000018	0	0	NaN	NaN	NaN	NaN	NaN	NaN	0	1e-07
0	0.9996799	-1.1854695e-10	1.3117955e-10	0.9996799	-1.1854695e-10	1.3117955e-10	NaN	NaN	NaN	NaN	NaN	NaN	0.31999978	0	0	NaN	NaN	NaN	NaN	NaN	NaN	0	1e-07
0	0.999695	7.781864e-11	-3.0492515e-11	0.999695	7.781864e-11	-3.0492515e-11	NaN	NaN	NaN	NaN	NaN	NaN	0.36000034	0	0	NaN	NaN	NaN	NaN	NaN	NaN	0	1e-07
0	0.9997089	2.989964e-11	4.048778e-11	0.99970883	2.989964e-11	4.048778e-11	NaN	NaN	NaN	NaN	NaN	NaN	0.40000036	0	0	NaN	NaN	NaN	NaN	NaN	NaN	0	1e-07
0	0.9997217	-8.449774e-11	1.6256499e-10	0.9997217	-8.449774e-11	1.6256499e-10	NaN	NaN	NaN	NaN	NaN	NaN	0.43999952	0	0	NaN	NaN	NaN	NaN	NaN	NaN	0	1e-07
0	0.9997335	-2.3425173e-10	9.005285e-12	0.99973345	-2.3425173e-10	9.005285e-12	NaN	NaN	NaN	NaN	NaN	NaN	0.47999957	0	0	NaN	NaN	NaN	NaN	NaN	NaN	0	1e-07
0	0.9997446	-2.9896796e-10	2.4903258e-11	0.99974453	-2.9896796e-10	2.4903258e-11	NaN	NaN	NaN	NaN	NaN	NaN	0.5200003	0	0	NaN	NaN	NaN	NaN	NaN	NaN	0	1e-07
0	0.9997548	-4.6924242e-11	-1.2431026e-10	0.9997548	-4.6924242e-11	-1.2431026e-10	NaN	NaN	NaN	NaN	NaN	NaN	0.56000036	0	0	NaN	NaN	NaN	NaN	NaN	NaN	0	1e-07
0	0.9997644	-1.5688784e-11	-1.3428643e-10	0.9997644	-1.5688784e-11	-1.3428643e-10	NaN	NaN	NaN	NaN	NaN	NaN	0.59999925	0	0	NaN	NaN	NaN	NaN	NaN	NaN	0	1e-07
0	0.99977344	-4.0813575e-11	-5.4634942e-11	0.9997734	-4.0813575e-11	-5.463494e-11	NaN	NaN	NaN	NaN	NaN	NaN	0.63999957	0	0	NaN	NaN	NaN	NaN	NaN	NaN	0	1e-07
0	0.9997817	-2.0199309e-10	3.1580776e-11	0.9997818	-2.0199309e-10	3.1580776e-11	NaN	NaN	NaN	NaN	NaN	NaN	0.68000025	0	0	NaN	NaN	NaN	NaN	NaN	NaN	0	1e-07
0	0.9997859	-2.152376e-10	1.2349116e-10	0.99978584	-2.152376e-10	1.2349115e-10	NaN	NaN	NaN	NaN	NaN	NaN	0.69999945	0	0	NaN	NaN	NaN	NaN	NaN	NaN	0	1e-07
0	0.9997777	-5.6445515e-11	-3.0109436e-11	0.9997777	-5.6445515e-11	-3.0109436e-11	NaN	NaN	NaN	NaN	NaN	NaN	0.6600008	0	0	NaN	NaN	NaN	NaN	NaN	NaN	0	1e-07
0	0.999769	-5.7809757e-11	7.064167e-11	0.999769	-5.7809757e-11	7.064167e-11	NaN	NaN	NaN	NaN	NaN	NaN	0.6200003	0	0	NaN	NaN	NaN	NaN	NaN	NaN	0	1e-07
0	0.9997645	1.4804868e-10	-6.6037495e-11	0.99976444	1.4804868e-10	-6.6037495e-11	NaN	NaN	NaN	NaN	NaN	NaN	0.59999925	0	0	NaN	NaN	NaN	NaN	NaN	NaN	0	1e-07
0	0.99975973	2.6204816e-11	-1.282093e-10	0.9997597	2.6204816e-11	-1.282093e-10	NaN	NaN	NaN	NaN	NaN	NaN	0.58000094	0	0	NaN	NaN	NaN	NaN	NaN	NaN	0	1e-07
0	0.9997548	-2.1040591e-10	-6.2890165e-11	0.9997548	-2.1040591e-10	-6.2890165e-11	NaN	NaN	NaN	NaN	NaN	NaN	0.56000036	0	0	NaN	NaN	NaN	NaN	NaN	NaN	0	1e-07
0	0.9997497	1.2164492e-11	-4.8482808e-11	0.9997497	1.2164492e-11	-4.848281e-11	NaN	NaN	NaN	NaN	NaN	NaN	0.5400007	0	0	NaN	NaN	NaN	NaN	NaN	NaN	0	1e-07
0	0.9997446	-2.9604053e-10	-9.1107524e-11	0.9997446	-2.9604053e-10	-9.1107524e-11	NaN	NaN	NaN	NaN	NaN	NaN	0.5200003	0	0	NaN	NaN	NaN	NaN	NaN	NaN	0	1e-07
0	0.99973917	-1.3696422e-10	-2.4484623e-11	0.99973917	-1.3696422e-10	-2.4484623e-11	NaN	NaN	NaN	NaN	NaN	NaN	0.5	0	0	NaN	NaN	NaN	NaN	NaN	NaN	0	1e-07
0	0.99973345	-2.0551738e-10	5.5541773e-11	0.99973357	-2.0551738e-10	5.5541773e-11	NaN	NaN	NaN	NaN	NaN	NaN	0.47999957	0	0	NaN	NaN	NaN	NaN	NaN	NaN	0	1e-07
0	0.9997277	1.6913759e-10	3.8942453e-11	0.9997278	1.6913759e-10	3.8942453e-11	NaN	NaN	NaN	NaN	NaN	NaN	0.45999935	0	0	NaN	NaN	NaN	NaN	NaN	NaN	0	1e-07
0	0.9997217	6.1447736e-11	5.5890476e-11	0.9997217	6.1447736e-11	5.5890473e-11	NaN	NaN	NaN	NaN	NaN	NaN	0.43999952	0	0	NaN	NaN	NaN	NaN	NaN	NaN	0	1e-07
0	0.99971545	4.4391868e-10	-1.3609983e-10	0.99971545	4.4391868e-10	-1.3609983e-10	NaN	NaN	NaN	NaN	NaN	NaN	0.41999933	0	0	NaN	NaN	NaN	NaN	NaN	NaN	0	1e-07
0	0.9997089	3.4702907e-11	8.5336696e-11	0.99970883	3.4702907e-11	8.533669e-11	NaN	NaN	NaN	NaN	NaN	NaN	0.40000036	0	0	NaN	NaN	NaN	NaN	NaN	NaN	0	1e-07
0	0.9997021	-1.805347e-10	-9.802999e-11	0.9997021	-1.805347e-10	-9.802999e-11	NaN	NaN	NaN	NaN	NaN	NaN	0.3800001	0	0	NaN	NaN	NaN	NaN	NaN	NaN	0	1e-07
0	0.999695	-1.2283863e-10	-8.525589e-11	0.999695	-1.2283863e-10	-8.525589e-11	NaN	NaN	NaN	NaN	NaN	NaN	0.36000034	0	0	NaN	NaN	NaN	NaN	NaN	NaN	0	1e-07
0	0.9996877	7.193535e-11	7.9224315e-11	0.9996877	7.193535e-11	7.9224315e-11	NaN	NaN	NaN	NaN	NaN	NaN	0.34000012	0	0	NaN	NaN	NaN	NaN	NaN	NaN	0	1e-07
0	0.99968	-1.505498e-10	1.03611224e-10	0.9996799	-1.505498e-10	1.0361122e-10	NaN	NaN	NaN	NaN	NaN	NaN	0.31999978	0	0	NaN	NaN	NaN	NaN	NaN	NaN	0	1e-07
0	0.99967194	8.978418e-11	6.164476e-11	0.99967194	8.978418e-11	6.164476e-11	NaN	NaN	NaN	NaN	NaN	NaN	0.29999962	0	0	NaN	NaN	NaN	NaN	NaN	NaN	0	1e-07
0	0.9996635	3.589946e-10	2.8001521e-11	0.9996635	3.589946e-10	2.8001521e-11	NaN	NaN	NaN	NaN	NaN	NaN	0.28000018	0	0	NaN	NaN	NaN	NaN	NaN	NaN	0	1e-07
0	0.9996547	-1.2548185e-10	8.977862e-11	0.9996547	-1.2548185e-10	8.977862e-11	NaN	NaN	NaN	NaN	NaN	NaN	0.26000014	0	0	NaN	NaN	NaN	NaN	NaN	NaN	0	1e-07
0	0.9996456	-1.0024337e-10	1.7369712e-11	0.9996456	-1.0024337e-10	1.7369712e-11	NaN	NaN	NaN	NaN	NaN	NaN	0.23999979	0	0	NaN	NaN	NaN	NaN	NaN	NaN	0	1e-07
0	0.9996359	1.9673507e-10	-8.437178e-11	0.9996359	1.9673507e-10	-8.437179e-11	NaN	NaN	NaN	NaN	NaN	NaN	0.21999976	0	0	NaN	NaN	NaN	NaN	NaN	NaN	0	1e-07
0	0.9996258	-2.5380587e-11	6.1827654e-11	0.9996258	-2.5380587e-11	6.1827654e-11	NaN	NaN	NaN	NaN	NaN	NaN	0.20000018	0	0	NaN	NaN	NaN	NaN	NaN	NaN	0	1e-07
0	0.9996151	3.6021675e-10	-9.9462494e-11	0.9996151	3.6021675e-10	-9.94625e-11	NaN	NaN	NaN	NaN	NaN	NaN	0.18000017	0	0	NaN	NaN	NaN	NaN	NaN	NaN	0	1e-07
0	0.99960387	-1.364242e-12	1.8590675e-10	0.9996038	-1.364242e-12	1.8590675e-10	NaN	NaN	NaN	NaN	NaN	NaN	0.15999989	0	0	NaN	NaN	NaN	NaN	NaN	NaN	0	1e-07
0	0.9995919	-9.194423e-11	-1.4387319e-10	0.99959195	-9.194423e-11	-1.4387319e-10	NaN	NaN	NaN	NaN	NaN	NaN	0.14000009	0	0	NaN	NaN	NaN	NaN	NaN	NaN	0	1e-07
0	0.99957937	5.4509997e-10	9.697556e-11	0.99957937	5.4509997e-10	9.697556e-11	NaN	NaN	NaN	NaN	NaN	NaN	0.11999989	0	0	NaN	NaN	NaN	NaN	NaN	NaN	0	1e-07
0	0.99956614	9.3507424e-11	-2.2355826e-10	0.999566	9.3507424e-11	-2.2355826e-10	NaN	NaN	NaN	NaN	NaN	NaN	0.10000009	0	0	NaN	NaN	NaN	NaN	NaN	NaN	0	1e-07
0	0.9995521	-6.734524e-10	2.32361e-12	0.9995521	-6.734524e-10	2.32361e-12	NaN	NaN	NaN	NaN	NaN	NaN	0.079999946	0	0	NaN	NaN	NaN	NaN	NaN	NaN	0	1e-07
0	0.99953693	-7.665335e-11	1.498223e-11	0.99953693	-7.665335e-11	1.4982232e-11	NaN	NaN	NaN	NaN	NaN	NaN	0.059999947	0	0	NaN	NaN	NaN	NaN	NaN	NaN	0	1e-07
0	0.9995209	1.8164314e-10	-9.331249e-11	0.9995209	1.8164314e-10	-9.3312476e-11	NaN	NaN	NaN	NaN	NaN	NaN	0.039999973	0	0	NaN	NaN	NaN	NaN	NaN	NaN	0	1e-07
0	0.99950385	3.2386538e-10	2.870825e-11	0.99950373	3.2386538e-10	2.870825e-11	NaN	NaN	NaN	NaN	NaN	NaN	0.019999987	0	0	NaN	NaN	NaN	NaN	NaN	NaN	0	1e-07
0	0.9994853	-1.2116175e-10	1.4707572e-11	0.9994853	-1.2116175e-10	1.4707572e-11	NaN	NaN	NaN	NaN	NaN	NaN	-2.8449465e-16	0	0	NaN	NaN	NaN	NaN	NaN	NaN	0	1e-07
0	0.9994655	6.2925665e-11	1.2591256e-10	0.9994655	6.2925665e-11	1.2591256e-10	NaN	NaN	NaN	NaN	NaN	NaN	-0.019999987	0	0	NaN	NaN	NaN	NaN	NaN	NaN	0	1e-07
0	0.9994441	-1.6248691e-10	-1.0478755e-10	0.9994441	-1.6248691e-10	-1.04787554e-10	NaN	NaN	NaN	NaN	NaN	NaN	-0.039999973	0	0	NaN	NaN	NaN	NaN	NaN	NaN	0	1e-07
0	0.9994209	2.181082e-10	-6.748713e-11	0.9994209	2.181082e-10	-6.748713e-11	NaN	NaN	NaN	NaN	NaN	NaN	-0.059999947	0	0	NaN	NaN	NaN	NaN	NaN	NaN	0	1e-07
0	0.99939555	2.9859848e-10	2.2087785e-11	0.9993956	2.9859848e-10	2.2087785e-11	NaN	NaN	NaN	NaN	NaN	NaN	-0.079999946	0	0	NaN	NaN	NaN	NaN	NaN	NaN	0	1e-07
0	0.9993678	-8.9698915e-11	-7.005971e-11	0.9993678	-8.9698915e-11	-7.00597e-11	NaN	NaN	NaN	NaN	NaN	NaN	-0.10000009	0	0	NaN	NaN	NaN	NaN	NaN	NaN	0	1e-07
0	0.99933726	5.032348e-10	1.1317974e-10	0.99933726	5.032348e-10	1.1317974e-10	NaN	NaN	NaN	NaN	NaN	NaN	-0.11999989	0	0	NaN	NaN	NaN	NaN	NaN	NaN	0	1e-07
0	0.99930346	-1.4978241e-10	3.8077254e-12	0.99930346	-1.4978241e-10	3.807725e-12	NaN	NaN	NaN	NaN	NaN	NaN	-0.14000009	0	0	NaN	NaN	NaN	NaN	NaN	NaN	0	1e-07
0	0.9992656	-9.7344355e-11	7.649192e-11	0.9992656	-9.7344355e-11	7.6491924e-11	NaN	NaN	NaN	NaN	NaN	NaN	-0.15999989	0	0	NaN	NaN	NaN	NaN	NaN	NaN	0	1e-07
0	0.99922293	9.660539e-11	8.4623274e-11	0.99922293	9.660539e-11	8.4623274e-11	NaN	NaN	NaN	NaN	NaN	NaN	-0.18000017	0	0	NaN	NaN	NaN	NaN	NaN	NaN	0	1e-07
0	0.9991744	-6.963319e-11	-3.5102352e-10	0.9991744	-6.963319e-11	-3.510235e-10	NaN	NaN	NaN	NaN	NaN	NaN	-0.20000018	0	0	NaN	NaN	NaN	NaN	NaN	NaN	0	1e-07
0	0.99911845	-2.1594815e-10	-1.7490754e-11	0.99911845	-2.1594815e-10	-1.7490755e-11	NaN	NaN	NaN	NaN	NaN	NaN	-0.21999976	0	0	NaN	NaN	NaN	NaN	NaN	NaN	0	1e-07
0	0.999053	6.3556627e-10	4.7506353e-11	0.999053	6.3556627e-10	4.750635e-11	NaN	NaN	NaN	NaN	NaN	NaN	-0.23999979	0	0	NaN	NaN	NaN	NaN	NaN	NaN	0	1e-07
0	0.9989749	-3.7215386e-10	7.878984e-11	0.9989749	-3.7215386e-10	7.878985e-11	NaN	NaN	NaN	NaN	NaN	NaN	-0.26000014	0	0	NaN	NaN	NaN	NaN	NaN	NaN	0	1e-07
0	0.9988798	1.3625368e-10	8.112982e-11	0.9988798	1.3625368e-10	8.112981e-11	NaN	NaN	NaN	NaN	NaN	NaN	-0.28000018	0	0	NaN	NaN	NaN	NaN	NaN	NaN	0	1e-07
0	0.9987603	-2.2697577e-10	1.8425132e-10	0.9987603	-2.2697577e-10	1.8425131e-10	NaN	NaN	NaN	NaN	NaN	NaN	-0.29999962	0	0	NaN	NaN	NaN	NaN	NaN	NaN	0	1e-07
0	0.99860376	3.2031267e-10	5.090043e-11	0.99860376	3.2031267e-10	5.0900423e-11	NaN	NaN	NaN	NaN	NaN	NaN	-0.31999978	0	0	NaN	NaN	NaN	NaN	NaN	NaN	0	1e-07
0	0.99838597	4.743015e-10	-1.7035706e-10	0.9983859	4.743015e-10	-1.7035708e-10	NaN	NaN	NaN	NaN	NaN	NaN	-0.34000012	0	0	NaN	NaN	NaN	NaN	NaN	NaN	0	1e-07
0	0.99805266	-4.4610715e-10	1.18533326e-11	0.9980526	-4.4610715e-10	1.1853331e-11	NaN	NaN	NaN	NaN	NaN	NaN	-0.36000034	0	0	NaN	NaN	NaN	NaN	NaN	NaN	0	1e-07
0	0.9974526	1.2232704e-10	-8.72045e-11	0.99745256	1.2232704e-10	-8.7204494e-11	NaN	NaN	NaN	NaN	NaN	NaN	-0.3800001	0	0	NaN	NaN	NaN	NaN	NaN	NaN	0	1e-07
0	0.9960154	8.126335e-10	-1.0016699e-10	0.9960154	8.126335e-10	-1.0016699e-10	NaN	NaN	NaN	NaN	NaN	NaN	-0.40000036	0	0	NaN	NaN	NaN	NaN	NaN	NaN	0	1e-07
0	-0.99971545	-7.721894e-10	1.3443789e-10	-0.9997154	-7.721894e-10	1.3443788e-10	NaN	NaN	NaN	NaN	NaN	NaN	-0.41999933	0	0	NaN	NaN	NaN	NaN	NaN	NaN	0	1e-07
0	-0.9997217	-3.21279e-10	-9.525439e-11	-0.9997217	-3.21279e-10	-9.525438e-11	NaN	NaN	NaN	NaN	NaN	NaN	-0.43999952	0	0	NaN	NaN	NaN	NaN	NaN	NaN	0	1e-07
0	-0.9997277	-1.4591706e-10	-9.603067e-12	-0.9997277	-1.4591706e-10	-9.603067e-12	NaN	NaN	NaN	NaN	NaN	NaN	-0.45999935	0	0	NaN	NaN	NaN	NaN	NaN	NaN	0	1e-07
0	-0.99973357	1.5310775e-10	-9.29371e-13	-0.9997335	1.5310775e-10	-9.29371e-13	NaN	NaN	NaN	NaN	NaN	NaN	-0.47999957	0	0	NaN	NaN	NaN	NaN	NaN	NaN	0	1e-07
0	-0.9997391	2.2686208e-10	4.758939e-11	-0.99973905	2.2686208e-10	4.7589398e-11	NaN	NaN	NaN	NaN	NaN	NaN	-0.5	0	0	NaN	NaN	NaN	NaN	NaN	NaN	0	1e-07
0	-0.99974453	3.871321e-10	4.3102445e-11	-0.99974453	3.871321e-10	4.310245e-11	NaN	NaN	NaN	NaN	NaN	NaN	-0.5200003	0	0	NaN	NaN	NaN	NaN	NaN	NaN	0	1e-07
0	-0.9997497	-4.209255e-11	8.555541e-11	-0.9997498	-4.209255e-11	8.555541e-11	NaN	NaN	NaN	NaN	NaN	NaN	-0.5400007	0	0	NaN	NaN	NaN	NaN	NaN	NaN	0	1e-07
0	-0.9997548	-2.2316726e-10	5.7978056e-11	-0.9997548	-2.2316726e-10	5.7978056e-11	NaN	NaN	NaN	NaN	NaN	NaN	-0.56000036	0	0	NaN	NaN	NaN	NaN	NaN	NaN	0	1e-07
0	-0.9997597	1.5677415e-10	8.117845e-11	-0.9997597	1.5677415e-10	8.117845e-11	NaN	NaN	NaN	NaN	NaN	NaN	-0.58000094	0	0	NaN	NaN	NaN	NaN	NaN	NaN	0	1e-07
0	-0.9997644	-2.4746782e-10	5.4383685e-12	-0.9997644	-2.4746782e-10	5.438368e-12	NaN	NaN	NaN	NaN	NaN	NaN	-0.59999925	0	0	NaN	NaN	NaN	NaN	NaN	NaN	0	1e-07
0	-0.99975973	5.9941385e-11	1.0065702e-10	-0.99975973	5.9941385e-11	1.0065702e-10	NaN	NaN	NaN	NaN	NaN	NaN	-0.58000094	0	0	NaN	NaN	NaN	NaN	NaN	NaN	0	1e-07
0	-0.9997548	-3.7459813e-11	-2.5803583e-11	-0.9997548	-3.7459813e-11	-2.5803581e-11	NaN	NaN	NaN	NaN	NaN	NaN	-0.56000036	0	0	NaN	NaN	NaN	NaN	NaN	NaN	0	1e-07
0	-0.9997497	-1.4551915e-11	7.9797176e-11	-0.9997497	-1.4551915e-11	7.979717e-11	NaN	NaN	NaN	NaN	NaN	NaN	-0.5400007	0	0	NaN	NaN	NaN	NaN	NaN	NaN	0	1e-07
0	-0.9997446	3.0274805e-10	1.4245535e-11	-0.9997446	3.0274805e-10	1.4245535e-11	NaN	NaN	NaN	NaN	NaN	NaN	-0.5200003	0	0	NaN	NaN	NaN	NaN	NaN	NaN	0	1e-07
0	-0.99973905	1.5077717e-10	8.890548e-11	-0.99973917	1.5077717e-10	8.890548e-11	NaN	NaN	NaN	NaN	NaN	NaN	-0.5	0	0	NaN	NaN	NaN	NaN	NaN	NaN	0	1e-07
0	-0.99973345	1.4293278e-10	-1.0149171e-10	-0.99973357	1.4293278e-10	-1.0149172e-10	NaN	NaN	NaN	NaN	NaN	NaN	-0.47999957	0	0	NaN	NaN	NaN	NaN	NaN	NaN	0	1e-07
0	-0.9997277	-1.386411e-10	-9.737966e-11	-0.9997277	-1.386411e-10	-9.737966e-11	NaN	NaN	NaN	NaN	NaN	NaN	-0.45999935	0	0	NaN	NaN	NaN	NaN	NaN	NaN	0	1e-07
0	-0.9997217	-1.5447199e-10	-1.7335243e-10	-0.9997217	-1.5447199e-10	-1.7335242e-10	NaN	NaN	NaN	NaN	NaN	NaN	-0.43999952	0	0	NaN	NaN	NaN	NaN	NaN	NaN	0	1e-07
0	-0.9997154	-1.369358e-10	1.1248197e-10	-0.99971545	-1.369358e-10	1.1248197e-10	NaN	NaN	NaN	NaN	NaN	NaN	-0.41999933	0	0	NaN	NaN	NaN	NaN	NaN	NaN	0	1e-07
0	-0.9997089	1.5836576e-10	-1.590764e-11	-0.9997089	1.5836576e-10	-1.590764e-11	NaN	NaN	NaN	NaN	NaN	NaN	-0.40000036	0	0	NaN	NaN	NaN	NaN	NaN	NaN	0	1e-07
0	-0.9997021	1.462297e-10	8.647432e-11	-0.99970204	1.462297e-10	8.647432e-11	NaN	NaN	NaN	NaN	NaN	NaN	-0.3800001	0	0	NaN	NaN	NaN	NaN	NaN	NaN	0	1e-07
0	-0.999695	-7.054268e-11	9.5314784e-11	-0.999695	-7.054268e-11	9.5314784e-11	NaN	NaN	NaN	NaN	NaN	NaN	-0.36000034	0	0	NaN	NaN	NaN	NaN	NaN	NaN	0	1e-07
0	-0.9996877	7.5573325e-11	2.125102e-11	-0.9996877	7.5573325e-11	2.1251022e-11	NaN	NaN	NaN	NaN	NaN	NaN	-0.34000012	0	0	NaN	NaN	NaN	NaN	NaN	NaN	0	1e-07
0	-0.99968	1.2499868e-10	-2.2272455e-11	-0.9996799	1.2499868e-10	-2.2272456e-11	NaN	NaN	NaN	NaN	NaN	NaN	-0.31999978	0	0	NaN	NaN	NaN	NaN	NaN	NaN	0	1e-07
0	-0.99967194	3.8681947e-11	1.8122728e-10	-0.99967194	3.8681947e-11	1.8122728e-10	NaN	NaN	NaN	NaN	NaN	NaN	-0.29999962	0	0	NaN	NaN	NaN	NaN	NaN	NaN	0	1e-07
0	-0.9996635	-4.8839865e-10	6.1254356e-11	-0.9996635	-4.8839865e-10	6.1254356e-11	NaN	NaN	NaN	NaN	NaN	NaN	-0.28000018	0	0	NaN	NaN	NaN	NaN	NaN	NaN	0	1e-07
0	-0.9996547	1.8610535e-10	2.2027527e-12	-0.99965477	1.8610535e-10	2.202753e-12	NaN	NaN	NaN	NaN	NaN	NaN	-0.26000014	0	0	NaN	NaN	NaN	NaN	NaN	NaN	0	1e-07
0	-0.99964553	5.201173e-12	6.716443e-11	-0.9996456	5.201173e-12	6.716443e-11	NaN	NaN	NaN	NaN	NaN	NaN	-0.23999979	0	0	NaN	NaN	NaN	NaN	NaN	NaN	0	1e-07
0	-0.9996359	-1.1485213e-10	7.4551636e-11	-0.9996359	-1.1485213e-10	7.455163e-11	NaN	NaN	NaN	NaN	NaN	NaN	-0.21999976	0	0	NaN	NaN	NaN	NaN	NaN	NaN	0	1e-07
0	-0.9996258	3.4845016e-11	-3.8086277e-11	-0.99962574	3.4845016e-11	-3.8086277e-11	NaN	NaN	NaN	NaN	NaN	NaN	-0.20000018	0	0	NaN	NaN	NaN	NaN	NaN	NaN	0	1e-07
0	-0.9996152	-1.5344881e-10	1.0164022e-10	-0.99961513	-1.5344881e-10	1.0164021e-10	NaN	NaN	NaN	NaN	NaN	NaN	-0.18000017	0	0	NaN	NaN	NaN	NaN	NaN	NaN	0	1e-07
0	-0.99960387	-8.046186e-11	-1.668666e-10	-0.9996038	-8.046186e-11	-1.6686659e-10	NaN	NaN	NaN	NaN	NaN	NaN	-0.15999989	0	0	NaN	NaN	NaN	NaN	NaN	NaN	0	1e-07
0	-0.99959195	9.094947e-11	1.7664097e-10	-0.99959195	9.094947e-11	1.7664097e-10	NaN	NaN	NaN	NaN	NaN	NaN	-0.14000009	0	0	NaN	NaN	NaN	NaN	NaN	NaN	0	1e-07
0	-0.99957937	-5.507843e-10	-9.003099e-11	-0.99957937	-5.507843e-10	-9.003098e-11	NaN	NaN	NaN	NaN	NaN	NaN	-0.11999989	0	0	NaN	NaN	NaN	NaN	NaN	NaN	0	1e-07
0	-0.9995661	-2.7284841e-11	2.2009745e-10	-0.9995661	-2.7284841e-11	2.2009745e-10	NaN	NaN	NaN	NaN	NaN	NaN	-0.10000009	0	0	NaN	NaN	NaN	NaN	NaN	NaN	0	1e-07
0	-0.999552	2.3550228e-10	-5.1438347e-11	-0.999552	2.3550228e-10	-5.1438347e-11	NaN	NaN	NaN	NaN	NaN	NaN	-0.079999946	0	0	NaN	NaN	NaN	NaN	NaN	NaN	0	1e-07
0	-0.9995369	1.5955948e-10	5.0931004e-12	-0.999537	1.5955948e-10	5.0931013e-12	NaN	NaN	NaN	NaN	NaN	NaN	-0.059999947	0	0	NaN	NaN	NaN	NaN	NaN	NaN	0	1e-07
0	-0.9995209	-8.9016794e-11	8.7692915e-11	-0.99952084	-8.9016794e-11	8.769292e-11	NaN	NaN	NaN	NaN	NaN	NaN	-0.039999973	0	0	NaN	NaN	NaN	NaN	NaN	NaN	0	1e-07
0	-0.99950373	-2.0546054e-10	4.0038327e-11	-0.99950385	-2.0546054e-10	4.0038327e-11	NaN	NaN	NaN	NaN	NaN	NaN	-0.019999987	0	0	NaN	NaN	NaN	NaN	NaN	NaN	0	1e-07
0	-0.9994853	1.7251978e-10	1.4946879e-11	-0.9994853	1.7251978e-10	1.494688e-11	NaN	NaN	NaN	NaN	NaN	NaN	2.8449465e-16	0	0	NaN	NaN	NaN	NaN	NaN	NaN	0	1e-07
0	-0.9994655	2.16005e-12	-1.5346573e-10	-0.9994656	2.16005e-12	-1.5346574e-10	NaN	NaN	NaN	NaN	NaN	NaN	0.019999987	0	0	NaN	NaN	NaN	NaN	NaN	NaN	0	1e-07
0	-0.9994441	2.0486368e-10	1.2535775e-10	-0.9994441	2.0486368e-10	1.2535775e-10	NaN	NaN	NaN	NaN	NaN	NaN	0.039999973	0	0	NaN	NaN	NaN	NaN	NaN	NaN	0	1e-07
0	-0.9994209	2.2197355e-11	2.1317224e-11	-0.9994209	2.2197355e-11	2.1317226e-11	NaN	NaN	NaN	NaN	NaN	NaN	0.059999947	0	0	NaN	NaN	NaN	NaN	NaN	NaN	0	1e-07
0	-0.9993956	-3.4407321e-10	7.645312e-11	-0.99939555	-3.4407321e-10	7.6453115e-11	NaN	NaN	NaN	NaN	NaN	NaN	0.079999946	0	0	NaN	NaN	NaN	NaN	NaN	NaN	0	1e-07
0	-0.9993678	6.980372e-11	1.6627726e-10	-0.99936783	6.980372e-11	1.6627724e-10	NaN	NaN	NaN	NaN	NaN	NaN	0.10000009	0	0	NaN	NaN	NaN	NaN	NaN	NaN	0	1e-07
0	-0.9993373	-5.801155e-10	-1.5593202e-10	-0.9993373	-5.801155e-10	-1.5593202e-10	NaN	NaN	NaN	NaN	NaN	NaN	0.11999989	0	0	NaN	NaN	NaN	NaN	NaN	NaN	0	1e-07
0	-0.99930346	1.9028334e-10	-7.7360245e-12	-0.99930346	1.9028334e-10	-7.7360245e-12	NaN	NaN	NaN	NaN	NaN	NaN	0.14000009	0	0	NaN	NaN	NaN	NaN	NaN	NaN	0	1e-07
0	-0.9992656	1.02147624e-10	-3.5541722e-11	-0.9992656	1.02147624e-10	-3.554172e-11	NaN	NaN	NaN	NaN	NaN	NaN	0.15999989	0	0	NaN	NaN	NaN	NaN	NaN	NaN	0	1e-07
0	-0.99922293	-3.0388492e-10	-1.2590237e-10	-0.99922293	-3.0388492e-10	-1.2590237e-10	NaN	NaN	NaN	NaN	NaN	NaN	0.18000017	0	0	NaN	NaN	NaN	NaN	NaN	NaN	0	1e-07
0	-0.9991744	1.203091e-10	1.2120026e-10	-0.99917436	1.203091e-10	1.2120026e-10	NaN	NaN	NaN	NaN	NaN	NaN	0.20000018	0	0	NaN	NaN	NaN	NaN	NaN	NaN	0	1e-07
0	-0.99911845	9.8339115e-11	-7.141305e-11	-0.99911845	9.8339115e-11	-7.141304e-11	NaN	NaN	NaN	NaN	NaN	NaN	0.21999976	0	0	NaN	NaN	NaN	NaN	NaN	NaN	0	1e-07
0	-0.999053	-7.976553e-10	-1.1725701e-11	-0.999053	-7.976553e-10	-1.1725702e-11	NaN	NaN	NaN	NaN	NaN	NaN	0.23999979	0	0	NaN	NaN	NaN	NaN	NaN	NaN	0	1e-07
0	-0.9989749	3.5618086e-10	-2.1440066e-10	-0.9989749	3.5618086e-10	-2.1440066e-10	NaN	NaN	NaN	NaN	NaN	NaN	0.26000014	0	0	NaN	NaN	NaN	NaN	NaN	NaN	0	1e-07
0	-0.9988798	-1.8718538e-10	-1.8757712e-10	-0.9988798	-1.8718538e-10	-1.875771e-10	NaN	NaN	NaN	NaN	NaN	NaN	0.28000018	0	0	NaN	NaN	NaN	NaN	NaN	NaN	0	1e-07
0	-0.99876034	1.4210855e-10	-8.675131e-11	-0.9987603	1.4210855e-10	-8.675131e-11	NaN	NaN	NaN	NaN	NaN	NaN	0.29999962	0	0	NaN	NaN	NaN	NaN	NaN	NaN	0	1e-07
0	-0.99860376	-1.7524826e-10	-6.901467e-11	-0.99860376	-1.7524826e-10	-6.901467e-11	NaN	NaN	NaN	NaN	NaN	NaN	0.31999978	0	0	NaN	NaN	NaN	NaN	NaN	NaN	0	1e-07
0	-0.99838585	-5.104539e-10	6.849713e-11	-0.9983859	-5.104539e-10	6.849714e-11	NaN	NaN	NaN	NaN	NaN	NaN	0.34000012	0	0	NaN	NaN	NaN	NaN	NaN	NaN	0	1e-07
0	-0.9980526	4.05862e-10	-1.296829e-10	-0.9980526	4.05862e-10	-1.296829e-10	NaN	NaN	NaN	NaN	NaN	NaN	0.36000034	0	0	NaN	NaN	NaN	NaN	NaN	NaN	0	1e-07
0	-0.9974526	-1.1425527e-10	3.0134107e-11	-0.99745256	-1.1425527e-10	3.0134104e-11	NaN	NaN	NaN	NaN	NaN	NaN	0.3800001	0	0	NaN	NaN	NaN	NaN	NaN	NaN	0	1e-07
0	-0.99601555	3.490186e-10	7.203081e-11	-0.99601555	3.490186e-10	7.203081e-11	NaN	NaN	NaN	NaN	NaN	NaN	0.40000036	0	0	NaN	NaN	NaN	NaN	NaN	NaN	0	1e-07
0	0.99971545	-4.9649884e-10	-1.2188438e-10	0.99971545	-4.9649884e-10	-1.2188439e-10	NaN	NaN	NaN	NaN	NaN	NaN	0.41999933	0	0	NaN	NaN	NaN	NaN	NaN	NaN	0	1e-07
0	0.9997217	3.541345e-10	4.9720717e-11	0.9997217	3.541345e-10	4.9720717e-11	NaN	NaN	NaN	NaN	NaN	NaN	0.43999952	0	0	NaN	NaN	NaN	NaN	NaN	NaN	0	1e-07
0	0.9997277	2.3305802e-11	-2.7418495e-11	0.99972767	2.3305802e-11	-2.7418495e-11	NaN	NaN	NaN	NaN	NaN	NaN	0.45999935	0	0	NaN	NaN	NaN	NaN	NaN	NaN	0	1e-07
0	0.99973357	-1.1951329e-10	8.091939e-11	0.9997335	-1.1951329e-10	8.091938e-11	NaN	NaN	NaN	NaN	NaN	NaN	0.47999957	0	0	NaN	NaN	NaN	NaN	NaN	NaN	0	1e-07
0	0.99973917	-1.8172841e-10	-2.3363811e-11	0.99973917	-1.8172841e-10	-2.336381e-11	NaN	NaN	NaN	NaN	NaN	NaN	0.5	0	0	NaN	NaN	NaN	NaN	NaN	NaN	0	1e-07
0	0.9997446	-2.688978e-10	-1.9200322e-11	0.99974453	-2.688978e-10	-1.9200322e-11	NaN	NaN	NaN	NaN	NaN	NaN	0.5200003	0	0	NaN	NaN	NaN	NaN	NaN	NaN	0	1e-07
0	0.9997498	2.060574e-11	-2.6064242e-13	0.9997498	2.060574e-11	-2.6064264e-13	NaN	NaN	NaN	NaN	NaN	NaN	0.5400007	0	0	NaN	NaN	NaN	NaN	NaN	NaN	0	1e-07
0	0.9997548	-3.2116532e-12	-1.4148665e-11	0.9997548	-3.2116532e-12	-1.4148664e-11	NaN	NaN	NaN	NaN	NaN	NaN	0.56000036	0	0	NaN	NaN	NaN	NaN	NaN	NaN	0	1e-07
0	0.9997597	3.475975e-11	-1.0332019e-10	0.9997597	3.475975e-11	-1.03320186e-10	NaN	NaN	NaN	NaN	NaN	NaN	0.58000094	0	0	NaN	NaN	NaN	NaN	NaN	NaN	0	1e-07
0	0.99975973	3.475975e-11	-1.033202e-10	0.9997295	4.4894196e-11	-8.169852e-11	NaN	NaN	NaN	NaN	NaN	NaN	0.58000094	0	0	1.3493849	9.031007e-10	-9.031007e-10	NaN	NaN	NaN	0	1e-07
0	0.9997597	3.475975e-11	-1.033202e-10	0.9997295	4.4894196e-11	-8.169853e-11	NaN	NaN	NaN	NaN	NaN	NaN	0.58000094	0	0	1.1934464	1.8062014e-09	8.91812e-09	NaN	NaN	NaN	3.5135135e-09	1e-07
0	0.99975973	3.475975e-11	-1.03320186e-10	0.99972606	1.3428099e-08	-1.2089576e-09	NaN	NaN	NaN	NaN	NaN	NaN	0.58000094	0	0	1.192478	0.0005359629	-5.4626304e-07	0.716838	0.0006788783	-0.004271984	3.5135135e-09	5e-08
0	0.99975973	3.475975e-11	-1.033202e-10	0.9997259	1.38433744e-08	-1.2256438e-09	NaN	NaN	NaN	NaN	NaN	NaN	0.58000094	0	0	1.1923916	0.00055736507	-2.5896412e-07	0.7642428	0.00064225064	-0.006777575	3.5135135e-09	5.2727273e-08
