# t (s)	mx ()	my ()	mz ()	m.region21x ()	m.region21y ()	m.region21z ()	m.region22x ()	m.region22y ()	m.region22z ()	m.region23x ()	m.region23y ()	m.region23z ()	B_extx (T)	B_exty (T)	B_extz (T)	B_eff.region6x (T)	B_eff.region6y (T)	B_eff.region6z (T)	B_eff.region9x (T)	B_eff.region9y (T)	B_eff.region9z (T)	step_x (No unit)	step_y (No unit)
0	0	-0.2973111	0	-0.707107	0.707107	0	0.7071073	-0.7071073	0	-0.7071073	-0.7071073	0	0	0	0	0.006937989	-0.029299388	4.4703485e-09	NaN	NaN	NaN	0	1e-07
0	0	-0.29731107	0	-0.707107	0.707107	0	0.7071073	-0.7071073	0	-0.7071073	-0.70710725	0	0	0	0	-0.006222624	-0.023697833	5.5258473e-09	NaN	NaN	NaN	7.692308e-09	1e-07
0	0	-0.2973111	0	-0.707107	0.70710707	0	0.7071073	-0.7071073	0	-0.7071073	-0.7071073	0	0	0	0	-0.01931688	-0.018886069	4.2530397e-09	NaN	NaN	NaN	1.5384616e-08	1e-07
0	0	-0.2973111	0	-0.707107	0.70710707	0	0.70710737	-0.7071073	0	-0.7071073	-0.7071073	0	0	0	0	-0.031930868	-0.015051411	7.2022277e-09	NaN	NaN	NaN	2.3076923e-08	1e-07
0	0	-0.29731107	0	-0.707107	0.707107	0	0.7071073	-0.7071073	0	-0.7071073	-0.7071073	0	0	0	0	-0.043735433	-0.012213675	3.290673e-09	NaN	NaN	NaN	3.0769232e-08	1e-07
0	0	-0.2973111	0	-0.707107	0.70710707	0	0.7071073	-0.7071073	0	-0.7071073	-0.7071073	0	0	0	0	-0.05451756	-0.010284704	5.2464504e-09	NaN	NaN	NaN	3.846154e-08	1e-07
0	0	-0.2973111	0	-0.707107	0.70710707	0	0.7071073	-0.7071073	0	-0.7071073	-0.7071073	0	0	0	0	-0.064171	-0.009127112	1.5211602e-09	NaN	NaN	NaN	4.6153847e-08	1e-07
0	0	-0.2973111	0	-0.707107	0.707107	0	0.7071073	-0.7071073	0	-0.7071073	-0.7071073	0	0	0	0	-0.07267189	-0.008592264	3.3838055e-09	NaN	NaN	NaN	5.3846154e-08	1e-07
0	0	-0.29731107	0	-0.707107	0.707107	0	0.7071073	-0.7071073	0	-0.7071073	-0.70710737	0	0	0	0	-0.080051325	-0.008540244	1.3969839e-09	NaN	NaN	NaN	6.1538465e-08	1e-07
0	0	-0.2973111	0	-0.707107	0.70710707	0	0.7071073	-0.70710737	0	-0.7071073	-0.7071073	0	0	0	0	-0.08637405	-0.008848365	-8.381903e-10	NaN	NaN	NaN	6.923077e-08	1e-07
0	0	-0.2973111	0	-0.707107	0.70710707	0	0.7071073	-0.7071073	0	-0.7071073	-0.70710737	0	0	0	0	-0.09172287	-0.009413202	-1.3038516e-09	NaN	NaN	NaN	7.692308e-08	1e-07
0	0	-0.2973111	0	-0.707107	0.707107	0	0.7071073	-0.7071073	0	-0.7071073	-0.70710737	0	0	0	0	-0.096188374	-0.0101496745	-6.2088173e-10	NaN	NaN	NaN	8.461539e-08	1e-07
0	0	-0.2973111	0	-0.707107	0.707107	0	0.7071073	-0.7071073	0	-0.7071073	-0.70710737	0	0	0	0	-0.09986272	-0.010989	-2.0023436e-09	NaN	NaN	NaN	9.2307694e-08	1e-07
0	0	-0.29731107	0	-0.707107	0.707107	0	0.7071073	-0.70710737	0	-0.7071073	-0.7071073	0	0	0	0	-0.10283579	-0.01187642	-3.5700698e-10	NaN	NaN	NaN	1e-07	1e-07
0	0	-0.2973111	0	-0.70710707	0.70710707	0	0.7071073	-0.7071073	0	-0.70710725	-0.7071073	0	0	0	0	-0.10519338	-0.012769143	9.778887e-10	NaN	NaN	NaN	1.0769231e-07	1e-07
0	0	-0.29731107	0	-0.707107	0.707107	0	0.7071073	-0.7071073	0	-0.7071073	-0.7071073	0	0	0	0	-0.10701596	-0.013634594	1.4125059e-09	NaN	NaN	NaN	1.15384616e-07	1e-07
0	0	-0.2973111	0	-0.70710707	0.707107	0	0.7071073	-0.7071073	0	-0.7071073	-0.7071073	0	0	0	0	-0.10837852	-0.014448912	8.2266827e-10	NaN	NaN	NaN	1.2307693e-07	1e-07
0	0	-0.2973111	0	-0.70710707	0.707107	0	0.7071073	-0.70710737	0	-0.7071073	-0.70710737	0	0	0	0	-0.10935028	-0.015195673	-8.2266827e-10	NaN	NaN	NaN	1.3076924e-07	1e-07
0	0	-0.2973111	0	-0.70710707	0.707107	0	0.7071073	-0.7071073	0	-0.7071073	-0.7071073	0	0	0	0	-0.1099946	-0.015864767	-9.623666e-10	NaN	NaN	NaN	1.3846154e-07	1e-07
0	0	-0.2973111	0	-0.707107	0.707107	0	0.7071073	-0.7071073	0	-0.7071073	-0.7071073	0	0	0	0	-0.11036925	-0.016451355	-9.313226e-10	NaN	NaN	NaN	1.4615385e-07	1e-07
0	0	-0.2973111	0	-0.70710707	0.707107	0	0.7071073	-0.7071073	0	-0.7071073	-0.70710737	0	0	0	0	-0.11052667	-0.016954932	-8.692344e-10	NaN	NaN	NaN	1.5384616e-07	1e-07
0	0	-0.2973111	0	-0.707107	0.707107	0	0.7071073	-0.7071073	0	-0.70710737	-0.7071073	0	0	0	0	-0.11051388	-0.017378451	-1.3348956e-09	NaN	NaN	NaN	1.6153847e-07	1e-07
0	0	-0.2973111	0	-0.707107	0.70710707	0	0.7071073	-0.7071073	0	-0.7071073	-0.7071073	0	0	0	0	-0.11037319	-0.017727545	-5.2464504e-09	NaN	NaN	NaN	1.6923077e-07	1e-07
0	0	-0.2973111	0	-0.70710707	0.707107	0	0.7071073	-0.7071073	0	-0.7071073	-0.7071073	0	0	0	0	-0.11014223	-0.018009841	-6.0535967e-09	NaN	NaN	NaN	1.7692308e-07	1e-07
0	0	-0.29731107	0	-0.707107	0.70710707	0	0.7071073	-0.7071073	0	-0.7071073	-0.70710737	0	0	0	0	-0.10985449	-0.018234365	-5.820766e-09	NaN	NaN	NaN	1.8461539e-07	1e-07
0	0	-0.29731107	0	-0.707107	0.707107	0	0.7071073	-0.7071073	0	-0.7071073	-0.70710725	0	0	0	0	-0.109539635	-0.018411038	-5.440476e-09	NaN	NaN	NaN	1.923077e-07	1e-07
0	0	-0.2973111	0	-0.707107	0.70710707	0	0.7071073	-0.7071073	0	-0.7071073	-0.7071073	0	0	0	0	-0.109223716	-0.018550297	-2.9491882e-09	NaN	NaN	NaN	2e-07	1e-07
0	0	-0.2973111	0	-0.70710707	0.707107	0	0.70710725	-0.7071073	0	-0.70710737	-0.7071073	0	0	0	0	-0.108929776	-0.018662762	-7.3729706e-10	NaN	NaN	NaN	2.0769231e-07	1e-07
0	0	-0.2973111	0	-0.707107	0.707107	0	0.7071073	-0.70710737	0	-0.7071073	-0.7071073	0	0	0	0	-0.10867825	-0.018759048	-1.078782e-09	NaN	NaN	NaN	2.1538462e-07	1e-07
0	0	-0.29731107	0	-0.707107	0.707107	0	0.7071073	-0.7071073	0	-0.70710737	-0.7071073	0	0	0	0	-0.10848717	-0.01884958	-4.955412e-09	NaN	NaN	NaN	2.2307692e-07	1e-07
0	0	-0.2973111	0	-0.707107	0.707107	0	0.7071073	-0.7071073	0	-0.70710737	-0.7071073	0	0	0	0	-0.108372174	-0.018944511	-2.3515896e-09	NaN	NaN	NaN	2.3076923e-07	1e-07
0	0	-0.2973111	0	-0.707107	0.70710707	0	0.7071073	-0.70710737	0	-0.7071073	-0.7071073	0	0	0	0	-0.10834735	-0.019053696	-2.2700988e-09	NaN	NaN	NaN	2.3846152e-07	1e-07
0	0	-0.29731107	0	-0.707107	0.707107	0	0.7071073	-0.7071073	0	-0.7071073	-0.7071073	0	0	0	0	-0.108425125	-0.019186689	-4.1094608e-09	NaN	NaN	NaN	2.4615386e-07	1e-07
0	0	-0.2973111	0	-0.707107	0.70710707	0	0.7071073	-0.7071073	0	-0.70710737	-0.70710737	0	0	0	0	-0.10861642	-0.01935278	-8.090865e-09	NaN	NaN	NaN	2.5384617e-07	1e-07
0	0	-0.2973111	0	-0.707107	0.707107	0	0.7071073	-0.7071073	0	-0.7071073	-0.70710737	0	0	0	0	-0.1089309	-0.019561065	-7.212899e-09	NaN	NaN	NaN	2.6153847e-07	1e-07
0	0	-0.2973111	0	-0.707107	0.707107	0	0.7071073	-0.7071073	0	-0.7071073	-0.7071073	0	0	0	0	-0.10937712	-0.01982054	-8.20243e-09	NaN	NaN	NaN	2.6923078e-07	1e-07
0	0	-0.2973111	0	-0.707107	0.70710707	0	0.70710737	-0.7071073	0	-0.7071073	-0.70710737	0	0	0	0	-0.109962516	-0.020140182	-6.078032e-09	NaN	NaN	NaN	2.769231e-07	1e-07
0	0	-0.29731107	0	-0.707107	0.70710707	0	0.70710737	-0.7071073	0	-0.70710737	-0.7071073	0	0	0	0	-0.11069333	-0.020529097	-7.611258e-09	NaN	NaN	NaN	2.846154e-07	1e-07
0	0	-0.29731107	0	-0.70710707	0.70710707	0	0.7071073	-0.7071073	0	-0.70710737	-0.7071073	0	0	0	0	-0.11157449	-0.020996604	-5.417193e-09	NaN	NaN	NaN	2.923077e-07	1e-07
0	0	-0.2973111	0	-0.707107	0.70710707	0	0.7071073	-0.7071073	0	-0.70710737	-0.7071073	0	0	0	0	-0.11260993	-0.021552395	-3.773797e-09	NaN	NaN	NaN	3e-07	1e-07
0	0	-0.29731107	0	-0.70710707	0.707107	0	0.70710737	-0.7071073	0	-0.70710737	-0.7071073	0	0	0	0	-0.11380172	-0.022206647	-3.6205166e-09	NaN	NaN	NaN	3.0769232e-07	1e-07
0	0	-0.29731107	0	-0.707107	0.707107	0	0.7071073	-0.7071073	0	-0.7071073	-0.70710737	0	0	0	0	-0.115150325	-0.02297015	-3.6961865e-09	NaN	NaN	NaN	3.1538463e-07	1e-07
0	0	-0.2973111	0	-0.707107	0.707107	0	0.7071073	-0.7071073	0	-0.70710737	-0.7071073	0	0	0	0	-0.11665365	-0.023854405	-1.4901161e-09	NaN	NaN	NaN	3.2307693e-07	1e-07
0	0	-0.29731107	0	-0.707107	0.707107	0	0.7071073	-0.7071073	0	-0.7071073	-0.70710737	0	0	0	0	-0.11830679	-0.024871767	-2.1226394e-09	NaN	NaN	NaN	3.3076924e-07	1e-07
0	0	-0.2973111	0	-0.707107	0.707107	0	0.7071073	-0.70710737	0	-0.7071073	-0.70710737	0	0	0	0	-0.120100886	-0.026035458	-1.0981845e-09	NaN	NaN	NaN	3.3846155e-07	1e-07
0	0	-0.2973111	0	-0.70710707	0.70710707	0	0.7071073	-0.7071073	0	-0.7071073	-0.70710737	0	0	0	0	-0.12202225	-0.027359633	-2.2351743e-09	NaN	NaN	NaN	3.4615385e-07	1e-07
0	0	-0.29731107	0	-0.707107	0.707107	0	0.7071073	-0.70710737	0	-0.70710737	-0.7071073	0	0	0	0	-0.124050334	-0.028859193	-1.3426568e-09	NaN	NaN	NaN	3.5384616e-07	1e-07
0	0	-0.29731107	0	-0.707107	0.707107	0	0.7071073	-0.7071073	0	-0.70710737	-0.7071073	0	0	0	0	-0.12615624	-0.030549547	-3.0966476e-09	NaN	NaN	NaN	3.6153847e-07	1e-07
0	0	-0.2973111	0	-0.70710707	0.707107	0	0.7071073	-0.7071073	0	-0.7071073	-0.70710737	0	0	0	0	-0.12829934	-0.03244584	-1.8160791e-09	NaN	NaN	NaN	3.6923078e-07	1e-07
0	0	-0.2973111	0	-0.707107	0.707107	0	0.7071073	-0.7071073	0	-0.70710737	-0.7071073	0	0	0	0	-0.1304242	-0.034561705	-4.1443853e-09	NaN	NaN	NaN	3.7692308e-07	1e-07
0	0	-0.2973111	0	-0.70710707	0.70710707	0	0.7071073	-0.7071073	0	-0.70710737	-0.7071073	0	0	0	0	-0.1324561	-0.036906943	-2.6387472e-09	NaN	NaN	NaN	3.846154e-07	1e-07
0	0	-0.2973111	0	-0.707107	0.707107	0	0.7071073	-0.7071073	0	-0.70710725	-0.70710725	0	0	0	0	-0.13429607	-0.03948381	-5.021381e-09	NaN	NaN	NaN	3.923077e-07	1e-07
0	0	-0.2973111	0	-0.707107	0.707107	0	0.7071073	-0.7071073	0	-0.70710737	-0.7071073	0	0	0	0	-0.13581504	-0.04228109	-3.5079817e-09	NaN	NaN	NaN	4e-07	1e-07
0	0	-0.2973111	0	-0.707107	0.707107	0	0.7071073	-0.70710737	0	-0.7071073	-0.7071073	0	0	0	0	-0.1368497	-0.04526513	-4.051253e-09	NaN	NaN	NaN	4.076923e-07	1e-07
0	0	-0.2973111	0	-0.707107	0.707107	0	0.7071073	-0.7071073	0	-0.7071073	-0.7071073	0	0	0	0	-0.13719898	-0.048367124	-1.3504178e-09	NaN	NaN	NaN	4.1538462e-07	1e-07
0	0	-0.2973111	0	-0.70710707	0.707107	0	0.7071073	-0.7071073	0	-0.70710737	-0.70710725	0	0	0	0	-0.13662772	-0.051466443	-4.9049658e-09	NaN	NaN	NaN	4.2307693e-07	1e-07
0	0	-0.2973111	0	-0.707107	0.707107	0	0.7071073	-0.7071073	0	-0.7071073	-0.7071073	0	0	0	0	-0.1348801	-0.054371763	-5.4637592e-09	NaN	NaN	NaN	4.3076923e-07	1e-07
0	0	-0.2973111	0	-0.707107	0.70710707	0	0.7071073	-0.7071073	0	-0.7071073	-0.7071073	0	0	0	0	-0.13171174	-0.056807417	-7.885197e-09	NaN	NaN	NaN	4.3846154e-07	1e-07
0	0	-0.2973111	0	-0.707107	0.70710707	0	0.7071073	-0.7071073	0	-0.7071073	-0.7071073	0	0	0	0	-0.12694232	-0.05842119	-4.5013926e-09	NaN	NaN	NaN	4.4615385e-07	1e-07
0	0	-0.29731107	0	-0.707107	0.707107	0	0.7071073	-0.7071073	0	-0.7071073	-0.7071073	0	0	0	0	-0.12051299	-0.058835626	-3.6632022e-09	NaN	NaN	NaN	4.5384616e-07	1e-07
0	0	-0.2973111	0	-0.707107	0.707107	0	0.7071073	-0.7071073	0	-0.7071073	-0.70710737	0	0	0	0	-0.11252098	-0.057750084	-2.0489097e-09	NaN	NaN	NaN	4.6153846e-07	1e-07
0	0	-0.2973111	0	-0.70710707	0.707107	0	0.7071073	-0.7071073	0	-0.7071073	-0.7071073	0	0	0	0	-0.103183486	-0.055053014	-3.259629e-09	NaN	NaN	NaN	4.6923077e-07	1e-07
0	0	-0.29731107	0	-0.707107	0.707107	0	0.7071073	-0.7071073	0	-0.7071073	-0.7071073	0	0	0	0	-0.092756964	-0.050878868	-4.2219956e-09	NaN	NaN	NaN	4.7692305e-07	1e-07
0	0	-0.2973111	0	-0.707107	0.707107	0	0.7071073	-0.7071073	0	-0.7071073	-0.70710737	0	0	0	0	-0.08148174	-0.045575928	-4.4393045e-09	NaN	NaN	NaN	4.846154e-07	1e-07
0	0	-0.2973111	0	-0.707107	0.707107	0	0.7071073	-0.7071073	0	-0.7071073	-0.7071073	0	0	0	0	-0.06958019	-0.039632645	-3.973643e-09	NaN	NaN	NaN	4.923077e-07	1e-07
0	0	-0.2973111	0	-0.707107	0.707107	0	0.7071073	-0.7071073	0	-0.7071073	-0.7071073	0	0	0	0	-0.05729121	-0.03358072	-3.7873784e-09	NaN	NaN	NaN	5e-07	1e-07
0	0	-0.2973111	0	-0.707107	0.707107	0	0.7071073	-0.7071073	0	-0.7071073	-0.7071073	0	0	0	0	-0.04489724	-0.027900355	-2.3903945e-09	NaN	NaN	NaN	5.0769233e-07	1e-07
0	0	-0.2973111	0	-0.707107	0.707107	0	0.7071073	-0.7071073	0	-0.7071073	-0.7071073	0	0	0	0	-0.03271746	-0.022946555	-1.2107193e-09	NaN	NaN	NaN	5.153846e-07	1e-07
0	0	-0.29731107	0	-0.707107	0.70710707	0	0.7071073	-0.7071073	0	-0.7071073	-0.7071073	0	0	0	0	-0.021068683	-0.018916095	-6.2088173e-10	NaN	NaN	NaN	5.2307695e-07	1e-07
0	0	-0.2973111	0	-0.707107	0.707107	0	0.7071073	-0.7071073	0	-0.7071073	-0.70710737	0	0	0	0	-0.01022048	-0.015858518	-1.3038516e-09	NaN	NaN	NaN	5.307692e-07	1e-07
0	0	-0.2973111	0	-0.707107	0.70710707	0	0.7071073	-0.7071073	0	-0.7071073	-0.7071073	0	0	0	0	-0.00036576416	-0.01371652	-2.7939678e-10	NaN	NaN	NaN	5.3846156e-07	1e-07
0	0	-0.2973111	0	-0.707107	0.707107	0	0.7071073	-0.7071073	0	-0.7071073	-0.7071073	0	0	0	0	0.008384909	-0.012372224	4.967054e-10	NaN	NaN	NaN	5.4615384e-07	1e-07
0	0	-0.2973111	0	-0.70710707	0.70710707	0	0.7071073	-0.7071073	0	-0.70710737	-0.7071073	0	0	0	0	0.015992012	-0.011684867	-2.3283064e-09	NaN	NaN	NaN	5.538462e-07	1e-07
0	0	-0.2973111	0	-0.707107	0.70710707	0	0.7071073	-0.70710737	0	-0.70710737	-0.7071073	0	0	0	0	0.022469211	-0.011514415	-6.519258e-10	NaN	NaN	NaN	5.6153846e-07	1e-07
0	0	-0.29731107	0	-0.707107	0.707107	0	0.7071073	-0.7071073	0	-0.7071073	-0.70710737	0	0	0	0	0.02786546	-0.011734157	-1.3969839e-09	NaN	NaN	NaN	5.692308e-07	1e-07
0	0	-0.29731107	0	-0.70710707	0.707107	0	0.7071073	-0.7071073	0	-0.7071073	-0.7071073	0	0	0	0	0.032251008	-0.012235429	-4.346172e-10	NaN	NaN	NaN	5.7692307e-07	1e-07
0	0	-0.2973111	0	-0.70710707	0.707107	0	0.7071073	-0.7071073	0	-0.7071073	-0.7071073	0	0	0	0	0.03570676	-0.012928365	-1.0244549e-09	NaN	NaN	NaN	5.846154e-07	1e-07
0	0	-0.29731107	0	-0.707107	0.707107	0	0.7071073	-0.7071073	0	-0.70710737	-0.7071073	0	0	0	0	0.03831745	-0.013740508	-6.519258e-10	NaN	NaN	NaN	5.923077e-07	1e-07
0	0	-0.2973111	0	-0.707107	0.707107	0	0.7071073	-0.7071073	0	-0.7071073	-0.7071073	0	0	0	0	0.040167134	-0.014614734	-1.6298145e-09	NaN	NaN	NaN	6e-07	1e-07
0	0	-0.2973111	0	-0.70710707	0.707107	0	0.70710737	-0.7071073	0	-0.7071073	-0.70710737	0	0	0	0	0.041336637	-0.01550711	-2.4059166e-09	NaN	NaN	NaN	6.076923e-07	1e-07
0	0	-0.2973111	0	-0.707107	0.707107	0	0.7071073	-0.7071073	0	-0.7071073	-0.7071073	0	0	0	0	0.041902103	-0.016384844	-3.6787242e-09	NaN	NaN	NaN	6.1538464e-07	1e-07
0	0	-0.2973111	0	-0.707107	0.707107	0	0.7071073	-0.7071073	0	-0.70710737	-0.7071073	0	0	0	0	0.041934017	-0.017224602	-2.4369606e-09	NaN	NaN	NaN	6.230769e-07	1e-07
0	0	-0.29731107	0	-0.707107	0.707107	0	0.7071073	-0.7071073	0	-0.70710737	-0.70710725	0	0	0	0	0.041497033	-0.018010944	-3.0267984e-09	NaN	NaN	NaN	6.3076925e-07	1e-07
0	0	-0.29731107	0	-0.707107	0.70710707	0	0.7071073	-0.7071073	0	-0.7071073	-0.7071073	0	0	0	0	0.040649842	-0.018735087	-2.2351743e-09	NaN	NaN	NaN	6.3846153e-07	1e-07
0	0	-0.29731107	0	-0.70710707	0.707107	0	0.7071073	-0.7071073	0	-0.7071073	-0.7071073	0	0	0	0	0.039445255	-0.01939371	-2.6387472e-09	NaN	NaN	NaN	6.4615386e-07	1e-07
0	0	-0.29731107	0	-0.707107	0.70710707	0	0.7071073	-0.7071073	0	-0.7071073	-0.7071073	0	0	0	0	0.03793024	-0.019988008	2.1420419e-09	NaN	NaN	NaN	6.5384614e-07	1e-07
0	0	-0.2973111	0	-0.707107	0.707107	0	0.7071073	-0.7071073	0	-0.7071073	-0.7071073	0	0	0	0	0.03614631	-0.02052276	2.9647103e-09	NaN	NaN	NaN	6.615385e-07	1e-07
0	0	-0.2973111	0	-0.707107	0.707107	0	0.7071073	-0.7071073	0	-0.7071073	-0.7071073	0	0	0	0	0.034129724	-0.021005614	3.6632022e-09	NaN	NaN	NaN	6.6923076e-07	1e-07
0	0	-0.2973111	0	-0.707107	0.707107	0	0.7071073	-0.7071073	0	-0.70710737	-0.7071073	0	0	0	0	0.03191193	-0.021446379	2.0178657e-09	NaN	NaN	NaN	6.769231e-07	1e-07
0	0	-0.2973111	0	-0.707107	0.707107	0	0.7071073	-0.7071073	0	-0.7071073	-0.70710737	0	0	0	0	0.029519644	-0.021856526	3.6632022e-09	NaN	NaN	NaN	6.846154e-07	1e-07
0	0	-0.2973111	0	-0.707107	0.707107	0	0.7071073	-0.7071073	0	-0.7071073	-0.70710737	0	0	0	0	0.026975462	-0.022248726	2.5688982e-09	NaN	NaN	NaN	6.923077e-07	1e-07
0	0	-0.29731107	0	-0.707107	0.707107	0	0.7071073	-0.7071073	0	-0.7071073	-0.7071073	0	0	0	0	0.024298115	-0.022636533	1.6220535e-09	NaN	NaN	NaN	7e-07	1e-07
0	0	-0.2973111	0	-0.70710707	0.707107	0	0.7071073	-0.7071073	0	-0.7071073	-0.7071073	0	0	0	0	0.02150284	-0.023034148	4.1133413e-10	NaN	NaN	NaN	7.076923e-07	1e-07
0	0	-0.2973111	0	-0.707107	0.707107	0	0.7071073	-0.7071073	0	-0.70710737	-0.7071073	0	0	0	0	0.018601783	-0.023456287	2.8560558e-09	NaN	NaN	NaN	7.153846e-07	1e-07
0	0	-0.2973111	0	-0.707107	0.70710707	0	0.7071073	-0.7071073	0	-0.7071073	-0.7071073	0	0	0	0	0.015604172	-0.023918109	2.9181442e-09	NaN	NaN	NaN	7.2307694e-07	1e-07
0	0	-0.2973111	0	-0.707107	0.707107	0	0.7071073	-0.7071073	0	-0.7071073	-0.7071073	0	0	0	0	0.0125168795	-0.02443526	3.3993275e-09	NaN	NaN	NaN	7.307692e-07	1e-07
0	0	-0.2973111	0	-0.70710707	0.70710707	0	0.7071073	-0.7071073	0	-0.7071073	-0.7071073	0	0	0	0	0.009344554	-0.025023917	4.0745363e-09	NaN	NaN	NaN	7.3846155e-07	1e-07
0	0	-0.29731107	0	-0.70710707	0.707107	0	0.70710737	-0.70710737	0	-0.7071073	-0.7071073	0	0	0	0	0.0060899537	-0.025700968	6.0924017e-09	NaN	NaN	NaN	7.4615383e-07	1e-07
0	0	-0.2973111	0	-0.707107	0.707107	0	0.7071073	-0.70710737	0	-0.7071073	-0.7071073	0	0	0	0	0.0027542855	-0.02648416	5.4637592e-09	NaN	NaN	NaN	7.5384617e-07	1e-07
0	0	-0.29731107	0	-0.70710707	0.707107	0	0.7071073	-0.7071073	0	-0.70710737	-0.7071073	0	0	0	0	-0.00066252064	-0.027392376	3.7951393e-09	NaN	NaN	NaN	7.6153844e-07	1e-07
0	0	-0.2973111	0	-0.70710707	0.70710707	0	0.70710737	-0.7071073	0	-0.70710737	-0.70710737	0	0	0	0	-0.004161464	-0.028445873	9.856497e-10	NaN	NaN	NaN	7.692308e-07	1e-07
0	0	-0.2973111	0	-0.707107	0.70710707	0	0.7071073	-0.7071073	0	-0.70710737	-0.7071073	0	0	0	0	-0.0077440906	-0.029666634	2.2118911e-09	NaN	NaN	NaN	7.7692306e-07	1e-07
0	0	-0.2973111	0	-0.707107	0.707107	0	0.7071073	-0.7071073	0	-0.7071073	-0.7071073	0	0	0	0	-0.011412154	-0.031078666	3.1664968e-09	NaN	NaN	NaN	7.846154e-07	1e-07
0	0	-0.2973111	0	-0.707107	0.707107	0	0.7071073	-0.7071073	0	-0.7071073	-0.7071073	0	0	0	0	-0.015166936	-0.032708373	3.1587357e-09	NaN	NaN	NaN	7.923077e-07	1e-07
0	0	-0.2973111	0	-0.707107	0.707107	0	0.7071073	-0.70710737	0	-0.7071073	-0.7071073	0	0	0	0	-0.019008804	-0.034584913	2.1420419e-09	NaN	NaN	NaN	8e-07	1e-07
0	0	-0.2973111	0	-0.70710707	0.707107	0	0.7071073	-0.7071073	0	-0.7071073	-0.7071073	0	0	0	0	-0.022936272	-0.036740504	1.3426568e-09	NaN	NaN	NaN	8.076923e-07	1e-07
0	0	-0.2973111	0	-0.70710707	0.70710707	0	0.7071073	-0.7071073	0	-0.7071073	-0.70710737	0	0	0	0	-0.026945148	-0.0392107	6.752089e-10	NaN	NaN	NaN	8.153846e-07	1e-07
0	0	-0.2973111	0	-0.707107	0.707107	0	0.70710737	-0.7071073	0	-0.70710737	-0.70710737	0	0	0	0	-0.031027233	-0.042034525	-2.3283064e-10	NaN	NaN	NaN	8.230769e-07	1e-07
0	0	-0.29731107	0	-0.707107	0.707107	0	0.7071073	-0.7071073	0	-0.7071073	-0.7071073	0	0	0	0	-0.035168905	-0.045254365	-1.5599653e-09	NaN	NaN	NaN	8.3076924e-07	1e-07
0	0	-0.29731107	0	-0.707107	0.707107	0	0.7071073	-0.7071073	0	-0.70710737	-0.7071073	0	0	0	0	-0.0393491	-0.048915546	1.1641532e-10	NaN	NaN	NaN	8.384615e-07	1e-07
0	0	-0.2973111	0	-0.707107	0.707107	0	0.70710737	-0.7071073	0	-0.7071073	-0.7071073	0	0	0	0	-0.04353731	-0.0530653	1.5366822e-09	NaN	NaN	NaN	8.4615385e-07	1e-07
0	0	-0.2973111	0	-0.707107	0.707107	0	0.7071073	-0.7071073	0	-0.7071073	-0.70710737	0	0	0	0	-0.047690872	-0.057751074	2.9181442e-09	NaN	NaN	NaN	8.5384613e-07	1e-07
0	0	-0.29731107	0	-0.70710707	0.707107	0	0.7071073	-0.7071073	0	-0.7071073	-0.70710737	0	0	0	0	-0.051752426	-0.06301747	4.5634807e-09	NaN	NaN	NaN	8.6153847e-07	1e-07
0	0	-0.2973111	0	-0.707107	0.70710707	0	0.7071073	-0.7071073	0	-0.70710737	-0.7071073	0	0	0	0	-0.055647347	-0.068901986	7.155662e-09	NaN	NaN	NaN	8.6923075e-07	1e-07
0	0	-0.29731107	0	-0.707107	0.707107	0	0.7071073	-0.7071073	0	-0.70710737	-0.70710737	0	0	0	0	-0.059282165	-0.075428575	6.775372e-09	NaN	NaN	NaN	8.769231e-07	1e-07
0	0	-0.2973111	0	-0.70710707	0.707107	0	0.7071073	-0.7071073	0	-0.7071073	-0.70710737	0	0	0	0	-0.062544584	-0.08259972	5.4637592e-09	NaN	NaN	NaN	8.8461536e-07	1e-07
0	0	-0.29731107	0	-0.707107	0.707107	0	0.7071073	-0.7071073	0	-0.7071073	-0.7071073	0	0	0	0	-0.06530733	-0.0903866	3.7097683e-09	NaN	NaN	NaN	8.923077e-07	1e-07
0	0	-0.2973111	0	-0.707107	0.707107	0	0.70710737	-0.7071073	0	-0.7071073	-0.7071073	0	0	0	0	-0.067436054	-0.09872001	2.7474016e-09	NaN	NaN	NaN	9e-07	1e-07
0	0	-0.2973111	0	-0.707107	0.707107	0	0.70710737	-0.7071073	0	-0.7071073	-0.7071073	0	0	0	0	-0.068803795	-0.10748394	2.1265198e-09	NaN	NaN	NaN	9.076923e-07	1e-07
0	0	-0.29731107	0	-0.707107	0.70710707	0	0.7071073	-0.7071073	0	-0.7071073	-0.7071073	0	0	0	0	-0.0693089	-0.11651681	-6.2088175e-11	NaN	NaN	NaN	9.153846e-07	1e-07
0	0	-0.2973111	0	-0.707107	0.70710707	0	0.7071073	-0.7071073	0	-0.7071073	-0.70710737	0	0	0	0	-0.06889346	-0.12562284	-1.6142925e-09	NaN	NaN	NaN	9.230769e-07	1e-07
0	0	-0.2973111	0	-0.707107	0.707107	0	0.70710737	-0.7071073	0	-0.7071073	-0.7071073	0	0	0	0	-0.067554854	-0.13459322	-1.1331092e-09	NaN	NaN	NaN	9.307692e-07	1e-07
0	0	-0.2973111	0	-0.707107	0.707107	0	0.7071073	-0.7071073	0	-0.7071073	-0.7071073	0	0	0	0	-0.065345794	-0.14323106	-2.483527e-10	NaN	NaN	NaN	9.3846154e-07	1e-07
0	0	-0.2973111	0	-0.70710707	0.707107	0	0.7071073	-0.7071073	0	-0.7071073	-0.7071073	0	0	0	0	-0.062362436	-0.15137286	-1.3193736e-09	NaN	NaN	NaN	9.461538e-07	1e-07
0	0	-0.2973111	0	-0.707107	0.70710707	0	0.7071073	-0.7071073	0	-0.7071073	-0.7071073	0	0	0	0	-0.05872654	-0.15889947	-2.1109978e-09	NaN	NaN	NaN	9.538461e-07	1e-07
0	0	-0.2973111	0	-0.70710707	0.707107	0	0.7071073	-0.7071073	0	-0.7071073	-0.7071073	0	0	0	0	-0.054566775	-0.16573742	-2.9491882e-09	NaN	NaN	NaN	9.615385e-07	1e-07
0	0	-0.29731107	0	-0.707107	0.70710707	0	0.70710737	-0.7071073	0	-0.7071073	-0.7071073	0	0	0	0	-0.050004907	-0.17185251	-3.7252904e-10	NaN	NaN	NaN	9.692308e-07	1e-07
0	0	-0.29731107	0	-0.70710707	0.707107	0	0.7071073	-0.7071073	0	-0.7071073	-0.70710725	0	0	0	0	-0.045147333	-0.17724042	-1.0089328e-09	NaN	NaN	NaN	9.76923e-07	1e-07
0	0	-0.29731107	0	-0.70710707	0.707107	0	0.7071073	-0.7071073	0	-0.70710737	-0.7071073	0	0	0	0	-0.04008155	-0.18191689	-1.3969839e-10	NaN	NaN	NaN	9.846154e-07	1e-07
0	0	-0.2973111	0	-0.707107	0.707107	0	0.7071073	-0.7071073	0	-0.7071073	-0.7071073	0	0	0	0	-0.034876212	-0.18590957	-2.8871e-09	NaN	NaN	NaN	9.923077e-07	1e-07
0	0	-0.2973111	0	-0.707107	0.707107	0	0.7071073	-0.7071073	0	-0.70710737	-0.7071073	0	0	0	0	-0.029582411	-0.18925135	-1.1486312e-09	NaN	NaN	NaN	1e-06	1e-07
0	0	-0.29731107	0	-0.707107	0.707107	0	0.7071073	-0.7071073	0	-0.7071073	-0.7071073	0	0	0	0	-0.024236523	-0.19197598	-3.5700698e-09	NaN	NaN	NaN	1.0076923e-06	1e-07
0	0	-0.2973111	0	-0.707107	0.707107	0	0.7071073	-0.7071073	0	-0.7071073	-0.7071073	0	0	0	0	-0.01886306	-0.19411461	-1.6142925e-09	NaN	NaN	NaN	1.0153847e-06	1e-07
0	0	-0.2973111	0	-0.707107	0.707107	0	0.70710737	-0.7071073	0	-0.7071073	-0.70710737	0	0	0	0	-0.013477008	-0.19569401	-3.6476802e-09	NaN	NaN	NaN	1.023077e-06	1e-07
0	0	-0.29731107	0	-0.707107	0.707107	0	0.70710737	-0.70710737	0	-0.70710737	-0.70710737	0	0	0	0	-0.008086666	-0.19673501	-2.8715779e-09	NaN	NaN	NaN	1.0307692e-06	1e-07
0	0	-0.2973111	0	-0.707107	0.707107	0	0.7071073	-0.7071073	0	-0.7071073	-0.7071073	0	0	0	0	-0.0026955442	-0.19725193	-7.3729702e-09	NaN	NaN	NaN	1.0384615e-06	1e-07
0	0	-0.2973111	0	-0.707107	0.70710707	0	0.70710737	-0.7071073	0	-0.7071073	-0.7071073	0	0	0	0	NaN	NaN	NaN	NaN	NaN	NaN	1.0461539e-06	1e-07
0	0	-0.2973111	0	-0.70710707	0.707107	0	0.7071073	-0.7071073	0	-0.7071073	-0.7071073	0	0	0	0	0.0026955442	-0.1972519	-5.8673324e-09	NaN	NaN	NaN	1.0538462e-06	1e-07
0	0	-0.2973111	0	-0.70710707	0.707107	0	0.7071073	-0.7071073	0	-0.7071073	-0.70710725	0	0	0	0	0.008086672	-0.19673505	-6.3640377e-09	NaN	NaN	NaN	1.0615385e-06	1e-07
0	0	-0.2973111	0	-0.70710707	0.707107	0	0.70710737	-0.7071073	0	-0.7071073	-0.7071073	0	0	0	0	0.013477001	-0.195694	-5.510325e-09	NaN	NaN	NaN	1.0692307e-06	1e-07
0	0	-0.2973111	0	-0.707107	0.707107	0	0.7071073	-0.7071073	0	-0.7071073	-0.7071073	0	0	0	0	0.018863061	-0.19411463	-7.574757e-09	NaN	NaN	NaN	1.0769231e-06	1e-07
0	0	-0.2973111	0	-0.707107	0.707107	0	0.7071073	-0.7071073	0	-0.7071073	-0.7071073	0	0	0	0	0.024236538	-0.19197597	-6.208817e-09	NaN	NaN	NaN	1.0846154e-06	1e-07
0	0	-0.29731107	0	-0.707107	0.707107	0	0.7071073	-0.70710737	0	-0.7071073	-0.7071073	0	0	0	0	0.029582374	-0.18925138	-5.7742e-09	NaN	NaN	NaN	1.0923077e-06	1e-07
0	0	-0.2973111	0	-0.707107	0.70710707	0	0.7071073	-0.7071073	0	-0.70710737	-0.7071073	0	0	0	0	0.03487621	-0.18590954	-5.2619726e-09	NaN	NaN	NaN	1.1e-06	1e-07
0	0	-0.2973111	0	-0.707107	0.707107	0	0.7071073	-0.7071073	0	-0.7071073	-0.7071073	0	0	0	0	0.04008155	-0.18191692	-5.401671e-09	NaN	NaN	NaN	1.1076924e-06	1e-07
0	0	-0.29731107	0	-0.707107	0.70710707	0	0.7071073	-0.70710737	0	-0.70710737	-0.7071073	0	0	0	0	0.045147307	-0.17724043	-4.842877e-09	NaN	NaN	NaN	1.1153846e-06	1e-07
0	0	-0.29731107	0	-0.70710707	0.70710707	0	0.7071073	-0.7071073	0	-0.7071073	-0.70710737	0	0	0	0	0.05000491	-0.17185253	-5.2464504e-09	NaN	NaN	NaN	1.1230769e-06	1e-07
0	0	-0.2973111	0	-0.707107	0.70710707	0	0.7071073	-0.7071073	0	-0.7071073	-0.7071073	0	0	0	0	0.054566793	-0.16573742	-6.2553833e-09	NaN	NaN	NaN	1.1307692e-06	1e-07
0	0	-0.29731107	0	-0.707107	0.70710707	0	0.7071073	-0.7071073	0	-0.7071073	-0.7071073	0	0	0	0	0.058726538	-0.15889947	-6.3640377e-09	NaN	NaN	NaN	1.1384616e-06	1e-07
0	0	-0.2973111	0	-0.707107	0.707107	0	0.7071073	-0.70710737	0	-0.7071073	-0.70710737	0	0	0	0	0.06236244	-0.15137284	-6.7055224e-09	NaN	NaN	NaN	1.1461539e-06	1e-07
0	0	-0.29731107	0	-0.707107	0.707107	0	0.7071073	-0.7071073	0	-0.70710737	-0.7071073	0	0	0	0	0.06534578	-0.14323108	-7.4195365e-09	NaN	NaN	NaN	1.1538461e-06	1e-07
0	0	-0.29731107	0	-0.707107	0.707107	0	0.7071073	-0.7071073	0	-0.70710737	-0.7071073	0	0	0	0	0.06755487	-0.13459319	-8.366381e-09	NaN	NaN	NaN	1.1615384e-06	1e-07
0	0	-0.2973111	0	-0.707107	0.707107	0	0.70710737	-0.7071073	0	-0.7071073	-0.7071073	0	0	0	0	0.06889348	-0.12562284	-7.667889e-09	NaN	NaN	NaN	1.1692308e-06	1e-07
0	0	-0.2973111	0	-0.707107	0.707107	0	0.7071073	-0.7071073	0	-0.7071073	-0.7071073	0	0	0	0	0.0693089	-0.1165168	-8.0093745e-09	NaN	NaN	NaN	1.1769231e-06	1e-07
0	0	-0.29731107	0	-0.707107	0.707107	0	0.7071073	-0.7071073	0	-0.70710737	-0.7071073	0	0	0	0	0.068803765	-0.107483946	-7.543713e-09	NaN	NaN	NaN	1.1846154e-06	1e-07
0	0	-0.2973111	0	-0.707107	0.707107	0	0.7071073	-0.70710737	0	-0.7071073	-0.7071073	0	0	0	0	0.06743608	-0.098719984	-7.2643163e-09	NaN	NaN	NaN	1.1923076e-06	1e-07
0	0	-0.2973111	0	-0.707107	0.707107	0	0.7071073	-0.7071073	0	-0.7071073	-0.7071073	0	0	0	0	0.06530731	-0.09038661	-5.820766e-09	NaN	NaN	NaN	1.2e-06	1e-07
0	0	-0.2973111	0	-0.707107	0.70710707	0	0.70710737	-0.7071073	0	-0.70710737	-0.7071073	0	0	0	0	0.062544614	-0.082599685	-6.270905e-09	NaN	NaN	NaN	1.2076923e-06	1e-07
0	0	-0.2973111	0	-0.70710707	0.707107	0	0.7071073	-0.7071073	0	-0.70710737	-0.7071073	0	0	0	0	0.05928216	-0.075428575	-2.576659e-09	NaN	NaN	NaN	1.2153846e-06	1e-07
0	0	-0.29731107	0	-0.707107	0.70710707	0	0.7071073	-0.7071073	0	-0.7071073	-0.7071073	0	0	0	0	0.055647366	-0.06890196	-2.188608e-09	NaN	NaN	NaN	1.2230769e-06	1e-07
0	0	-0.29731107	0	-0.70710707	0.707107	0	0.7071073	-0.7071073	0	-0.7071073	-0.70710737	0	0	0	0	0.05175241	-0.06301747	6.752089e-10	NaN	NaN	NaN	1.2307693e-06	1e-07
0	0	-0.2973111	0	-0.707107	0.707107	0	0.7071073	-0.7071073	0	-0.7071073	-0.70710737	0	0	0	0	0.04769089	-0.057751056	-1.2805685e-09	NaN	NaN	NaN	1.2384616e-06	1e-07
0	0	-0.2973111	0	-0.70710707	0.707107	0	0.7071073	-0.7071073	0	-0.7071073	-0.70710737	0	0	0	0	0.043537304	-0.0530653	-6.3640376e-10	NaN	NaN	NaN	1.2461538e-06	1e-07
0	0	-0.29731107	0	-0.70710707	0.707107	0	0.7071073	-0.7071073	0	-0.7071073	-0.7071073	0	0	0	0	0.039349105	-0.048915528	-1.8393621e-09	NaN	NaN	NaN	1.2538461e-06	1e-07
0	0	-0.2973111	0	-0.70710707	0.707107	0	0.7071073	-0.7071073	0	-0.7071073	-0.7071073	0	0	0	0	0.035168886	-0.045254365	3.8029005e-10	NaN	NaN	NaN	1.2615385e-06	1e-07
0	0	-0.2973111	0	-0.707107	0.70710707	0	0.7071073	-0.70710737	0	-0.70710737	-0.7071073	0	0	0	0	0.031027244	-0.042034518	-2.7784457e-09	NaN	NaN	NaN	1.2692308e-06	1e-07
0	0	-0.29731107	0	-0.70710707	0.707107	0	0.7071073	-0.7071073	0	-0.7071073	-0.7071073	0	0	0	0	0.02694514	-0.0392107	-4.2297565e-09	NaN	NaN	NaN	1.2769231e-06	1e-07
0	0	-0.2973111	0	-0.70710707	0.707107	0	0.7071073	-0.7071073	0	-0.70710737	-0.7071073	0	0	0	0	0.022936266	-0.036740493	-5.355105e-09	NaN	NaN	NaN	1.2846153e-06	1e-07
0	0	-0.2973111	0	-0.707107	0.707107	0	0.7071073	-0.70710737	0	-0.7071073	-0.7071073	0	0	0	0	0.019008782	-0.034584913	-6.0147918e-09	NaN	NaN	NaN	1.2923077e-06	1e-07
0	0	-0.29731107	0	-0.707107	0.707107	0	0.7071073	-0.7071073	0	-0.7071073	-0.7071073	0	0	0	0	0.01516696	-0.03270837	-6.4726917e-09	NaN	NaN	NaN	1.3e-06	1e-07
0	0	-0.29731107	0	-0.707107	0.707107	0	0.7071073	-0.70710737	0	-0.70710737	-0.7071073	0	0	0	0	0.01141218	-0.031078665	-7.287599e-09	NaN	NaN	NaN	1.3076923e-06	1e-07
0	0	-0.29731107	0	-0.707107	0.70710707	0	0.7071073	-0.7071073	0	-0.7071073	-0.7071073	0	0	0	0	0.007744069	-0.029666629	-6.3640377e-09	NaN	NaN	NaN	1.3153846e-06	1e-07
0	0	-0.2973111	0	-0.707107	0.70710707	0	0.7071073	-0.7071073	0	-0.7071073	-0.7071073	0	0	0	0	0.0041614645	-0.028445875	-5.036903e-09	NaN	NaN	NaN	1.323077e-06	1e-07
0	0	-0.2973111	0	-0.707107	0.707107	0	0.7071073	-0.7071073	0	-0.7071073	-0.7071073	0	0	0	0	0.0006625031	-0.02739237	-3.0190372e-09	NaN	NaN	NaN	1.3307692e-06	1e-07
0	0	-0.2973111	0	-0.70710707	0.70710707	0	0.7071073	-0.7071073	0	-0.70710737	-0.7071073	0	0	0	0	-0.0027542673	-0.026484162	-4.353933e-09	NaN	NaN	NaN	1.3384615e-06	1e-07
0	0	-0.2973111	0	-0.707107	0.707107	0	0.7071073	-0.7071073	0	-0.7071073	-0.7071073	0	0	0	0	-0.006089961	-0.025700964	-3.973643e-09	NaN	NaN	NaN	1.3461538e-06	1e-07
0	0	-0.29731107	0	-0.707107	0.70710707	0	0.70710737	-0.7071073	0	-0.7071073	-0.7071073	0	0	0	0	-0.009344547	-0.02502392	-5.7043508e-09	NaN	NaN	NaN	1.3538462e-06	1e-07
0	0	-0.2973111	0	-0.707107	0.707107	0	0.7071073	-0.7071073	0	-0.7071073	-0.7071073	0	0	0	0	-0.012516901	-0.024435256	-5.735395e-09	NaN	NaN	NaN	1.3615385e-06	1e-07
0	0	-0.2973111	0	-0.70710707	0.707107	0	0.7071073	-0.7071073	0	-0.7071073	-0.70710737	0	0	0	0	-0.015604178	-0.02391811	-7.605801e-09	NaN	NaN	NaN	1.3692307e-06	1e-07
0	0	-0.2973111	0	-0.707107	0.707107	0	0.7071073	-0.7071073	0	-0.7071073	-0.7071073	0	0	0	0	-0.018601751	-0.02345628	-6.868504e-09	NaN	NaN	NaN	1.376923e-06	1e-07
0	0	-0.29731107	0	-0.707107	0.707107	0	0.7071073	-0.7071073	0	-0.7071073	-0.7071073	0	0	0	0	-0.021502836	-0.02303415	-6.806416e-09	NaN	NaN	NaN	1.3846154e-06	1e-07