# t (s)	mx ()	my ()	mz ()	m.region21x ()	m.region21y ()	m.region21z ()	m.region22x ()	m.region22y ()	m.region22z ()	m.region23x ()	m.region23y ()	m.region23z ()	B_extx (T)	B_exty (T)	B_extz (T)	B_eff.region6x (T)	B_eff.region6y (T)	B_eff.region6z (T)	B_eff.region9x (T)	B_eff.region9y (T)	B_eff.region9z (T)	step_x (No unit)	step_y (No unit)
0	0	-0.20758349	0	-0.707107	0.707107	0	0.70710737	-0.70710737	0	-0.70710725	-0.70710725	0	0	0	0	0.08388972	-0.047407087	6.2088173e-10	NaN	NaN	NaN	0	1e-07
0	0	-0.20758349	0	-0.707107	0.707107	0	0.70710737	-0.7071073	0	-0.7071073	-0.70710737	0	0	0	0	0.08220427	-0.050428692	3.197541e-09	NaN	NaN	NaN	7.692308e-09	1e-07
0	0	-0.20758349	0	-0.707107	0.707107	0	0.7071073	-0.7071073	0	-0.7071073	-0.7071073	0	0	0	0	0.07902197	-0.052960135	6.2243393e-09	NaN	NaN	NaN	1.5384616e-08	1e-07
0	0	-0.20758349	0	-0.707107	0.707107	0	0.7071073	-0.70710737	0	-0.70710737	-0.70710725	0	0	0	0	0.074157014	-0.054661024	9.763365e-09	NaN	NaN	NaN	2.3076923e-08	1e-07
0	0	-0.20758349	0	-0.707107	0.707107	0	0.7071073	-0.70710737	0	-0.7071073	-0.7071073	0	0	0	0	0.06754715	-0.05517064	6.767611e-09	NaN	NaN	NaN	3.0769232e-08	1e-07
0	0	-0.20758347	0	-0.707107	0.707107	0	0.70710737	-0.70710737	0	-0.7071073	-0.7071073	0	0	0	0	0.05929215	-0.05420895	6.7365664e-09	NaN	NaN	NaN	3.846154e-08	1e-07
0	0	-0.20758349	0	-0.707107	0.707107	0	0.7071073	-0.70710737	0	-0.70710725	-0.7071073	0	0	0	0	0.049620084	-0.051685777	3.4148495e-09	NaN	NaN	NaN	4.6153847e-08	1e-07
0	0	-0.20758349	0	-0.707107	0.707107	0	0.70710737	-0.70710737	0	-0.70710737	-0.7071073	0	0	0	0	0.03880901	-0.047752492	6.9538753e-09	NaN	NaN	NaN	5.3846154e-08	1e-07
0	0	-0.20758349	0	-0.707107	0.707107	0	0.70710737	-0.70710737	0	-0.70710737	-0.7071073	0	0	0	0	0.027129788	-0.042762995	6.146729e-09	NaN	NaN	NaN	6.1538465e-08	1e-07
0	0	-0.20758349	0	-0.707107	0.707107	0	0.7071073	-0.7071073	0	-0.70710725	-0.70710737	0	0	0	0	0.014838631	-0.037194047	6.0225527e-09	NaN	NaN	NaN	6.923077e-08	1e-07
0	0	-0.20758349	0	-0.707107	0.707107	0	0.70710737	-0.70710725	0	-0.70710737	-0.7071073	0	0	0	0	0.0022011462	-0.031546164	1.8936892e-09	NaN	NaN	NaN	7.692308e-08	1e-07
0	0	-0.20758349	0	-0.707107	0.707107	0	0.70710737	-0.70710737	0	-0.70710737	-0.70710725	0	0	0	0	-0.010492057	-0.02625505	2.7008356e-09	NaN	NaN	NaN	8.461539e-08	1e-07
0	0	-0.20758349	0	-0.707107	0.707107	0	0.70710737	-0.70710725	0	-0.70710725	-0.7071073	0	0	0	0	-0.022938412	-0.021632513	-1.5522043e-09	NaN	NaN	NaN	9.2307694e-08	1e-07
0	0	-0.20758349	0	-0.707107	0.707107	0	0.70710737	-0.70710737	0	-0.70710725	-0.70710737	0	0	0	0	-0.034856103	-0.017849017	-3.7252903e-09	NaN	NaN	NaN	1e-07	1e-07
0	0	-0.20758349	0	-0.707107	0.707107	0	0.70710737	-0.70710737	0	-0.70710737	-0.70710725	0	0	0	0	-0.04601421	-0.014951008	-4.0667754e-09	NaN	NaN	NaN	1.0769231e-07	1e-07
0	0	-0.20758349	0	-0.707107	0.707107	0	0.70710737	-0.70710737	0	-0.70710737	-0.70710737	0	0	0	0	-0.056249604	-0.012895446	-6.2088175e-11	NaN	NaN	NaN	1.15384616e-07	1e-07
0	0	-0.20758349	0	-0.707107	0.707107	0	0.7071073	-0.70710737	0	-0.70710737	-0.70710725	0	0	0	0	-0.0654675	-0.011585639	9.623666e-10	NaN	NaN	NaN	1.2307693e-07	1e-07
0	0	-0.20758349	0	-0.707107	0.707107	0	0.7071073	-0.70710737	0	-0.70710737	-0.7071073	0	0	0	0	-0.07363332	-0.010900426	1.8936892e-09	NaN	NaN	NaN	1.3076924e-07	1e-07
0	0	-0.20758349	0	-0.707107	0.707107	0	0.70710737	-0.70710737	0	-0.70710737	-0.70710725	0	0	0	0	-0.080759265	-0.010714326	1.6453365e-09	NaN	NaN	NaN	1.3846154e-07	1e-07
0	0	-0.20758347	0	-0.707107	0.707107	0	0.70710737	-0.7071073	0	-0.70710737	-0.70710725	0	0	0	0	-0.08689081	-0.010909642	6.3329937e-09	NaN	NaN	NaN	1.4615385e-07	1e-07
0	0	-0.20758349	0	-0.707107	0.707107	0	0.7071073	-0.70710737	0	-0.70710737	-0.70710737	0	0	0	0	-0.09209486	-0.011382455	3.973643e-09	NaN	NaN	NaN	1.5384616e-07	1e-07
0	0	-0.20758349	0	-0.707107	0.707107	0	0.70710737	-0.7071073	0	-0.70710737	-0.70710737	0	0	0	0	-0.09645032	-0.012044772	1.9712993e-09	NaN	NaN	NaN	1.6153847e-07	1e-07
0	0	-0.20758349	0	-0.707107	0.707107	0	0.70710737	-0.7071073	0	-0.7071073	-0.70710737	0	0	0	0	-0.10004171	-0.012824366	-1.102065e-09	NaN	NaN	NaN	1.6923077e-07	1e-07
0	0	-0.20758349	0	-0.707107	0.707107	0	0.70710737	-0.7071073	0	-0.70710737	-0.7071073	0	0	0	0	-0.10295431	-0.013663547	-7.4505807e-10	NaN	NaN	NaN	1.7692308e-07	1e-07
0	0	-0.20758349	0	-0.707107	0.707107	0	0.70710737	-0.7071073	0	-0.7071073	-0.70710725	0	0	0	0	-0.10527108	-0.0145174945	-2.6542692e-09	NaN	NaN	NaN	1.8461539e-07	1e-07
0	0	-0.20758349	0	-0.707107	0.707107	0	0.70710737	-0.70710737	0	-0.70710737	-0.70710737	0	0	0	0	-0.107071295	-0.015352499	-3.7097683e-09	NaN	NaN	NaN	1.923077e-07	1e-07
0	0	-0.20758349	0	-0.707107	0.707107	0	0.7071073	-0.7071073	0	-0.70710725	-0.7071073	0	0	0	0	-0.10842904	-0.016144302	-5.9604646e-09	NaN	NaN	NaN	2e-07	1e-07
0	0	-0.20758349	0	-0.707107	0.707107	0	0.7071073	-0.7071073	0	-0.70710737	-0.70710737	0	0	0	0	-0.10941313	-0.01687662	-3.7718566e-09	NaN	NaN	NaN	2.0769231e-07	1e-07
0	0	-0.20758349	0	-0.707107	0.707107	0	0.70710737	-0.70710725	0	-0.70710737	-0.70710725	0	0	0	0	-0.11008646	-0.017539768	-3.8494665e-09	NaN	NaN	NaN	2.1538462e-07	1e-07
0	0	-0.20758349	0	-0.707107	0.707107	0	0.7071073	-0.70710737	0	-0.70710737	-0.70710737	0	0	0	0	-0.11050659	-0.018129488	-5.09123e-09	NaN	NaN	NaN	2.2307692e-07	1e-07
0	0	-0.20758349	0	-0.707107	0.707107	0	0.70710725	-0.70710737	0	-0.70710737	-0.7071073	0	0	0	0	-0.11072535	-0.018645901	-4.8661604e-09	NaN	NaN	NaN	2.3076923e-07	1e-07
0	0	-0.20758349	0	-0.707107	0.707107	0	0.7071073	-0.70710737	0	-0.70710737	-0.70710737	0	0	0	0	-0.11078953	-0.019092564	-4.4781094e-09	NaN	NaN	NaN	2.3846152e-07	1e-07
0	0	-0.20758349	0	-0.707107	0.707107	0	0.70710737	-0.7071073	0	-0.70710737	-0.7071073	0	0	0	0	-0.11074085	-0.019475687	-5.5491305e-09	NaN	NaN	NaN	2.4615386e-07	1e-07
0	0	-0.20758349	0	-0.707107	0.707107	0	0.70710737	-0.7071073	0	-0.70710737	-0.70710737	0	0	0	0	-0.110616736	-0.019803438	-2.6853135e-09	NaN	NaN	NaN	2.5384617e-07	1e-07
0	0	-0.20758349	0	-0.707107	0.707107	0	0.7071073	-0.70710737	0	-0.70710737	-0.70710725	0	0	0	0	-0.11045023	-0.020085389	-4.40826e-09	NaN	NaN	NaN	2.6153847e-07	1e-07
0	0	-0.20758349	0	-0.707107	0.707107	0	0.70710737	-0.70710737	0	-0.70710725	-0.7071073	0	0	0	0	-0.110270776	-0.020332033	-5.5956964e-09	NaN	NaN	NaN	2.6923078e-07	1e-07
0	0	-0.20758349	0	-0.707107	0.707107	0	0.70710737	-0.7071073	0	-0.70710737	-0.70710737	0	0	0	0	-0.11010434	-0.020554429	-4.71094e-09	NaN	NaN	NaN	2.769231e-07	1e-07
0	0	-0.20758349	0	-0.707107	0.707107	0	0.70710737	-0.70710737	0	-0.70710737	-0.7071073	0	0	0	0	-0.10997371	-0.020763958	-1.3581788e-09	NaN	NaN	NaN	2.846154e-07	1e-07
0	0	-0.20758349	0	-0.707107	0.707107	0	0.70710737	-0.7071073	0	-0.70710725	-0.70710737	0	0	0	0	-0.109899156	-0.020972071	8.420708e-10	NaN	NaN	NaN	2.923077e-07	1e-07
0	0	-0.20758349	0	-0.707107	0.707107	0	0.7071073	-0.70710737	0	-0.70710737	-0.70710725	0	0	0	0	-0.1098985	-0.02119025	2.8754585e-09	NaN	NaN	NaN	3e-07	1e-07
0	0	-0.20758349	0	-0.707107	0.707107	0	0.70710737	-0.70710725	0	-0.70710737	-0.7071073	0	0	0	0	-0.10998715	-0.021429883	2.4912878e-09	NaN	NaN	NaN	3.0769232e-07	1e-07
0	0	-0.20758349	0	-0.707107	0.707107	0	0.70710737	-0.7071073	0	-0.70710737	-0.70710737	0	0	0	0	-0.110178754	-0.02170231	2.0314475e-09	NaN	NaN	NaN	3.1538463e-07	1e-07
0	0	-0.20758349	0	-0.707107	0.707107	0	0.70710725	-0.7071073	0	-0.70710737	-0.70710725	0	0	0	0	-0.110484995	-0.022018788	9.1580055e-10	NaN	NaN	NaN	3.2307693e-07	1e-07
0	0	-0.20758349	0	-0.707107	0.707107	0	0.70710725	-0.70710725	0	-0.70710737	-0.70710725	0	0	0	0	-0.110915944	-0.022390662	1.5606929e-09	NaN	NaN	NaN	3.3076924e-07	1e-07
0	0	-0.20758349	0	-0.707107	0.707107	0	0.70710737	-0.7071073	0	-0.70710737	-0.70710725	0	0	0	0	-0.11147986	-0.022829333	-1.9307662e-09	NaN	NaN	NaN	3.3846155e-07	1e-07
0	0	-0.20758349	0	-0.707107	0.707107	0	0.7071073	-0.70710737	0	-0.7071073	-0.7071073	0	0	0	0	-0.11218324	-0.023346486	-1.1909681e-09	NaN	NaN	NaN	3.4615385e-07	1e-07
0	0	-0.20758349	0	-0.707107	0.707107	0	0.70710737	-0.70710737	0	-0.70710737	-0.7071073	0	0	0	0	-0.113030694	-0.023954097	2.4107674e-10	NaN	NaN	NaN	3.5384616e-07	1e-07
0	0	-0.20758349	0	-0.707107	0.707107	0	0.70710737	-0.7071073	0	-0.70710737	-0.70710737	0	0	0	0	-0.11402453	-0.024664657	1.8325712e-09	NaN	NaN	NaN	3.6153847e-07	1e-07
0	0	-0.20758349	0	-0.707107	0.707107	0	0.70710725	-0.7071073	0	-0.70710725	-0.70710737	0	0	0	0	-0.11516444	-0.025491146	1.3019114e-09	NaN	NaN	NaN	3.6923078e-07	1e-07
0	0	-0.20758349	0	-0.707107	0.707107	0	0.7071073	-0.7071073	0	-0.70710725	-0.70710725	0	0	0	0	-0.11644701	-0.026447171	1.094304e-09	NaN	NaN	NaN	3.7692308e-07	1e-07
0	0	-0.20758349	0	-0.707107	0.707107	0	0.7071073	-0.7071073	0	-0.70710737	-0.70710737	0	0	0	0	-0.11786457	-0.02754682	-1.9169724e-09	NaN	NaN	NaN	3.846154e-07	1e-07
0	0	-0.20758349	0	-0.707107	0.707107	0	0.70710737	-0.7071073	0	-0.70710737	-0.7071073	0	0	0	0	-0.1194045	-0.028804563	-2.3283065e-11	NaN	NaN	NaN	3.923077e-07	1e-07
0	0	-0.20758349	0	-0.707107	0.707107	0	0.7071073	-0.7071073	0	-0.70710737	-0.70710725	0	0	0	0	-0.121047705	-0.03023476	2.894861e-09	NaN	NaN	NaN	4e-07	1e-07
0	0	-0.20758349	0	-0.707107	0.707107	0	0.7071073	-0.7071073	0	-0.70710737	-0.70710725	0	0	0	0	-0.12276702	-0.03185102	1.2495245e-09	NaN	NaN	NaN	4.076923e-07	1e-07
0	0	-0.20758349	0	-0.707107	0.707107	0	0.70710737	-0.70710737	0	-0.70710737	-0.70710725	0	0	0	0	-0.12452503	-0.033665016	2.0721926e-09	NaN	NaN	NaN	4.1538462e-07	1e-07
0	0	-0.20758349	0	-0.707107	0.707107	0	0.70710737	-0.70710725	0	-0.7071073	-0.70710737	0	0	0	0	-0.12627214	-0.03568486	8.614734e-10	NaN	NaN	NaN	4.2307693e-07	1e-07
0	0	-0.20758349	0	-0.707107	0.707107	0	0.7071073	-0.70710737	0	-0.70710725	-0.70710725	0	0	0	0	-0.12794341	-0.037912607	1.4202669e-09	NaN	NaN	NaN	4.3076923e-07	1e-07
0	0	-0.20758349	0	-0.707107	0.707107	0	0.7071073	-0.70710725	0	-0.70710737	-0.70710737	0	0	0	0	-0.1294558	-0.040341057	4.0357312e-10	NaN	NaN	NaN	4.3846154e-07	1e-07
0	0	-0.20758349	0	-0.707107	0.707107	0	0.70710737	-0.7071073	0	-0.70710725	-0.70710737	0	0	0	0	-0.13070485	-0.042949133	1.3814618e-09	NaN	NaN	NaN	4.4615385e-07	1e-07
0	0	-0.20758349	0	-0.707107	0.707107	0	0.70710737	-0.7071073	0	-0.70710725	-0.7071073	0	0	0	0	-0.13156153	-0.045695968	-1.3969839e-10	NaN	NaN	NaN	4.5384616e-07	1e-07
0	0	-0.20758349	0	-0.707107	0.707107	0	0.7071073	-0.7071073	0	-0.70710725	-0.70710725	0	0	0	0	-0.13186964	-0.04851288	-6.2088175e-11	NaN	NaN	NaN	4.6153846e-07	1e-07
0	0	-0.20758349	0	-0.707107	0.707107	0	0.70710737	-0.70710725	0	-0.70710737	-0.70710737	0	0	0	0	-0.1314456	-0.05129336	-1.9868216e-09	NaN	NaN	NaN	4.6923077e-07	1e-07
0	0	-0.20758349	0	-0.707107	0.707107	0	0.7071073	-0.70710737	0	-0.70710737	-0.7071073	0	0	0	0	-0.13008305	-0.05388161	-2.949188e-10	NaN	NaN	NaN	4.7692305e-07	1e-07
0	0	-0.20758349	0	-0.707107	0.707107	0	0.70710737	-0.7071073	0	-0.70710737	-0.7071073	0	0	0	0	-0.1275666	-0.056063496	-1.4280279e-09	NaN	NaN	NaN	4.846154e-07	1e-07
0	0	-0.20758349	0	-0.70710707	0.707107	0	0.7071073	-0.70710737	0	-0.70710737	-0.70710737	0	0	0	0	-0.12369706	-0.057567332	-2.483527e-10	NaN	NaN	NaN	4.923077e-07	1e-07
0	0	-0.20758347	0	-0.707107	0.707107	0	0.70710737	-0.70710725	0	-0.70710737	-0.70710737	0	0	0	0	-0.11832604	-0.058087096	-4.0357313e-09	NaN	NaN	NaN	5e-07	1e-07
0	0	-0.20758347	0	-0.707107	0.707107	0	0.70710737	-0.70710725	0	-0.70710737	-0.70710725	0	0	0	0	-0.11138757	-0.05733605	-6.3640377e-09	NaN	NaN	NaN	5.0769233e-07	1e-07
0	0	-0.20758349	0	-0.707107	0.707107	0	0.7071073	-0.7071073	0	-0.70710737	-0.70710725	0	0	0	0	-0.10290969	-0.05512561	-8.81652e-09	NaN	NaN	NaN	5.153846e-07	1e-07
0	0	-0.20758349	0	-0.707107	0.707107	0	0.70710725	-0.7071073	0	-0.70710737	-0.70710725	0	0	0	0	-0.09300091	-0.05144417	-5.805244e-09	NaN	NaN	NaN	5.2307695e-07	1e-07
0	0	-0.20758349	0	-0.707107	0.707107	0	0.7071073	-0.70710737	0	-0.7071073	-0.70710725	0	0	0	0	-0.08182676	-0.046503495	-6.0535967e-09	NaN	NaN	NaN	5.307692e-07	1e-07
0	0	-0.20758349	0	-0.707107	0.707107	0	0.70710737	-0.7071073	0	-0.70710737	-0.70710737	0	0	0	0	-0.069605775	-0.04072667	-2.4524829e-09	NaN	NaN	NaN	5.3846156e-07	1e-07
0	0	-0.20758349	0	-0.707107	0.707107	0	0.70710737	-0.70710737	0	-0.70710737	-0.70710737	0	0	0	0	-0.056629796	-0.034668203	-4.625569e-09	NaN	NaN	NaN	5.4615384e-07	1e-07
0	0	-0.20758349	0	-0.707107	0.707107	0	0.70710737	-0.70710737	0	-0.70710725	-0.7071073	0	0	0	0	-0.043285295	-0.028880525	-3.7252903e-09	NaN	NaN	NaN	5.538462e-07	1e-07
0	0	-0.20758347	0	-0.707107	0.707107	0	0.7071073	-0.7071073	0	-0.70710737	-0.70710737	0	0	0	0	-0.0300173	-0.023781395	-5.2464504e-09	NaN	NaN	NaN	5.6153846e-07	1e-07
0	0	-0.20758349	0	-0.707107	0.707107	0	0.70710737	-0.7071073	0	-0.70710725	-0.70710725	0	0	0	0	-0.017247267	-0.019589597	-6.2088173e-10	NaN	NaN	NaN	5.692308e-07	1e-07
0	0	-0.20758349	0	-0.707107	0.707107	0	0.70710737	-0.70710737	0	-0.70710737	-0.70710725	0	0	0	0	-0.005304953	-0.016352756	-1.3348956e-09	NaN	NaN	NaN	5.7692307e-07	1e-07
0	0	-0.20758349	0	-0.707107	0.707107	0	0.70710737	-0.70710737	0	-0.70710725	-0.70710737	0	0	0	0	0.0055977	-0.014005593	-2.483527e-10	NaN	NaN	NaN	5.846154e-07	1e-07
0	0	-0.20758349	0	-0.707107	0.707107	0	0.7071073	-0.70710737	0	-0.70710725	-0.7071073	0	0	0	0	0.015354666	-0.012428579	-1.0554989e-09	NaN	NaN	NaN	5.923077e-07	1e-07
0	0	-0.20758349	0	-0.707107	0.707107	0	0.70710737	-0.7071073	0	-0.70710737	-0.70710737	0	0	0	0	0.023938775	-0.011486449	2.20413e-09	NaN	NaN	NaN	6e-07	1e-07
0	0	-0.20758349	0	-0.707107	0.707107	0	0.70710737	-0.7071073	0	-0.70710737	-0.7071073	0	0	0	0	0.03137502	-0.011048377	-3.7252904e-10	NaN	NaN	NaN	6.076923e-07	1e-07
0	0	-0.20758349	0	-0.707107	0.707107	0	0.7071073	-0.7071073	0	-0.70710737	-0.7071073	0	0	0	0	0.037719924	-0.0109969	6.519258e-10	NaN	NaN	NaN	6.1538464e-07	1e-07
0	0	-0.20758347	0	-0.707107	0.707107	0	0.70710737	-0.70710737	0	-0.70710725	-0.7071073	0	0	0	0	0.04304705	-0.011230318	-3.290673e-09	NaN	NaN	NaN	6.230769e-07	1e-07
0	0	-0.20758349	0	-0.707107	0.707107	0	0.70710737	-0.70710737	0	-0.70710737	-0.70710737	0	0	0	0	0.047438063	-0.011662519	-1.8160791e-09	NaN	NaN	NaN	6.3076925e-07	1e-07
0	0	-0.20758349	0	-0.707107	0.707107	0	0.70710737	-0.7071073	0	-0.70710725	-0.70710725	0	0	0	0	0.050977338	-0.012221668	-2.514571e-09	NaN	NaN	NaN	6.3846153e-07	1e-07
0	0	-0.20758349	0	-0.707107	0.707107	0	0.7071073	-0.7071073	0	-0.70710737	-0.70710737	0	0	0	0	0.05374882	-0.012848765	-5.122274e-10	NaN	NaN	NaN	6.4615386e-07	1e-07
0	0	-0.20758349	0	-0.707107	0.707107	0	0.70710737	-0.70710725	0	-0.70710725	-0.70710737	0	0	0	0	0.05583393	-0.013496279	-6.674478e-10	NaN	NaN	NaN	6.5384614e-07	1e-07
0	0	-0.20758349	0	-0.707107	0.707107	0	0.70710737	-0.7071073	0	-0.70710737	-0.7071073	0	0	0	0	0.057310414	-0.014126825	1.5056382e-09	NaN	NaN	NaN	6.615385e-07	1e-07
0	0	-0.20758349	0	-0.707107	0.707107	0	0.70710737	-0.7071073	0	-0.70710725	-0.70710725	0	0	0	0	0.058251575	-0.014712032	1.5677263e-09	NaN	NaN	NaN	6.6923076e-07	1e-07
0	0	-0.20758349	0	-0.707107	0.707107	0	0.7071073	-0.70710737	0	-0.70710725	-0.70710725	0	0	0	0	0.058725826	-0.015231336	9.313226e-11	NaN	NaN	NaN	6.769231e-07	1e-07
0	0	-0.20758349	0	-0.707107	0.707107	0	0.70710725	-0.70710737	0	-0.70710737	-0.70710737	0	0	0	0	0.05879612	-0.015670942	-1.086543e-10	NaN	NaN	NaN	6.846154e-07	1e-07
0	0	-0.20758349	0	-0.707107	0.707107	0	0.7071073	-0.7071073	0	-0.70710725	-0.7071073	0	0	0	0	0.058520295	-0.016022732	1.8160791e-09	NaN	NaN	NaN	6.923077e-07	1e-07
0	0	-0.20758349	0	-0.707107	0.707107	0	0.70710737	-0.70710737	0	-0.70710737	-0.70710725	0	0	0	0	0.05795051	-0.01628328	2.1265198e-09	NaN	NaN	NaN	7e-07	1e-07
0	0	-0.20758349	0	-0.707107	0.707107	0	0.70710737	-0.7071073	0	-0.70710737	-0.70710737	0	0	0	0	0.057133608	-0.016452888	-2.7939678e-10	NaN	NaN	NaN	7.076923e-07	1e-07
0	0	-0.20758349	0	-0.707107	0.707107	0	0.70710737	-0.7071073	0	-0.70710725	-0.70710725	0	0	0	0	0.056111503	-0.016534762	-1.6996637e-09	NaN	NaN	NaN	7.153846e-07	1e-07
0	0	-0.20758347	0	-0.707107	0.707107	0	0.70710737	-0.70710737	0	-0.70710737	-0.70710737	0	0	0	0	0.05492108	-0.016534237	-2.0799538e-09	NaN	NaN	NaN	7.2307694e-07	1e-07
0	0	-0.20758349	0	-0.707107	0.707107	0	0.70710737	-0.7071073	0	-0.70710737	-0.70710737	0	0	0	0	0.053594742	-0.016458128	-3.7873784e-09	NaN	NaN	NaN	7.307692e-07	1e-07
0	0	-0.20758349	0	-0.707107	0.707107	0	0.70710737	-0.7071073	0	-0.70710737	-0.70710725	0	0	0	0	0.05216072	-0.016314173	-1.6298145e-09	NaN	NaN	NaN	7.3846155e-07	1e-07
0	0	-0.20758349	0	-0.707107	0.707107	0	0.70710737	-0.7071073	0	-0.70710737	-0.7071073	0	0	0	0	0.05064342	-0.016110588	-1.5289212e-09	NaN	NaN	NaN	7.4615383e-07	1e-07
0	0	-0.20758349	0	-0.707107	0.707107	0	0.70710737	-0.70710725	0	-0.70710725	-0.7071073	0	0	0	0	0.04906398	-0.01585569	3.337239e-10	NaN	NaN	NaN	7.5384617e-07	1e-07
0	0	-0.20758349	0	-0.707107	0.707107	0	0.7071073	-0.7071073	0	-0.70710737	-0.70710737	0	0	0	0	0.04744016	-0.015557649	1.5522044e-11	NaN	NaN	NaN	7.6153844e-07	1e-07
0	0	-0.20758349	0	-0.707107	0.707107	0	0.70710737	-0.70710737	0	-0.70710737	-0.70710737	0	0	0	0	0.045787368	-0.015224257	1.3504178e-09	NaN	NaN	NaN	7.692308e-07	1e-07
0	0	-0.20758349	0	-0.707107	0.707107	0	0.70710737	-0.70710737	0	-0.70710725	-0.70710737	0	0	0	0	0.04411834	-0.014862812	9.390836e-10	NaN	NaN	NaN	7.7692306e-07	1e-07
0	0	-0.20758349	0	-0.707107	0.707107	0	0.7071073	-0.70710737	0	-0.70710737	-0.70710737	0	0	0	0	0.042443894	-0.014480015	2.9181442e-09	NaN	NaN	NaN	7.846154e-07	1e-07
0	0	-0.20758349	0	-0.707107	0.707107	0	0.70710737	-0.7071073	0	-0.70710737	-0.7071073	0	0	0	0	0.04077289	-0.014081928	1.4668331e-09	NaN	NaN	NaN	7.923077e-07	1e-07
0	0	-0.20758349	0	-0.707107	0.707107	0	0.70710737	-0.7071073	0	-0.70710737	-0.7071073	0	0	0	0	0.039112605	-0.013673956	5.9759864e-10	NaN	NaN	NaN	8e-07	1e-07
0	0	-0.20758349	0	-0.707107	0.707107	0	0.70710737	-0.7071073	0	-0.70710737	-0.70710725	0	0	0	0	0.037469033	-0.013260853	-9.701276e-10	NaN	NaN	NaN	8.076923e-07	1e-07
0	0	-0.20758349	0	-0.707107	0.707107	0	0.70710737	-0.70710737	0	-0.7071073	-0.70710725	0	0	0	0	0.03584695	-0.012846756	5.083469e-10	NaN	NaN	NaN	8.153846e-07	1e-07
0	0	-0.20758349	0	-0.707107	0.707107	0	0.7071073	-0.70710725	0	-0.70710737	-0.70710725	0	0	0	0	0.034250002	-0.012435217	1.6375755e-09	NaN	NaN	NaN	8.230769e-07	1e-07
0	0	-0.20758349	0	-0.707107	0.707107	0	0.70710737	-0.70710737	0	-0.70710725	-0.70710725	0	0	0	0	0.03268103	-0.0120292455	1.4939966e-09	NaN	NaN	NaN	8.3076924e-07	1e-07
0	0	-0.20758349	0	-0.707107	0.707107	0	0.70710725	-0.7071073	0	-0.70710725	-0.7071073	0	0	0	0	0.031142147	-0.011631364	7.761022e-11	NaN	NaN	NaN	8.384615e-07	1e-07
0	0	-0.20758347	0	-0.707107	0.707107	0	0.70710737	-0.70710725	0	-0.70710737	-0.7071073	0	0	0	0	0.029634906	-0.011243648	1.7811544e-09	NaN	NaN	NaN	8.4615385e-07	1e-07
0	0	-0.20758349	0	-0.707107	0.707107	0	0.7071073	-0.7071073	0	-0.70710737	-0.70710725	0	0	0	0	0.028160071	-0.010867793	6.480453e-10	NaN	NaN	NaN	8.5384613e-07	1e-07
0	0	-0.20758347	0	-0.707107	0.707107	0	0.7071073	-0.70710737	0	-0.70710737	-0.70710725	0	0	0	0	0.026718115	-0.010505141	1.3504178e-09	NaN	NaN	NaN	8.6153847e-07	1e-07
0	0	-0.20758349	0	-0.707107	0.707107	0	0.7071073	-0.70710737	0	-0.70710725	-0.70710737	0	0	0	0	0.025309166	-0.010156747	4.0357312e-10	NaN	NaN	NaN	8.6923075e-07	1e-07
0	0	-0.20758349	0	-0.707107	0.707107	0	0.70710737	-0.7071073	0	-0.70710725	-0.70710737	0	0	0	0	0.023932904	-0.0098234	2.2895013e-09	NaN	NaN	NaN	8.769231e-07	1e-07
0	0	-0.20758349	0	-0.707107	0.707107	0	0.70710737	-0.70710737	0	-0.7071073	-0.70710737	0	0	0	0	0.022588776	-0.0095056845	9.526654e-10	NaN	NaN	NaN	8.8461536e-07	1e-07
0	0	-0.20758349	0	-0.707107	0.707107	0	0.70710737	-0.7071073	0	-0.70710737	-0.70710725	0	0	0	0	0.021276051	-0.009203989	1.2126596e-09	NaN	NaN	NaN	8.923077e-07	1e-07
0	0	-0.20758349	0	-0.707107	0.707107	0	0.70710737	-0.70710737	0	-0.70710737	-0.7071073	0	0	0	0	0.019993735	-0.008918565	4.4431847e-10	NaN	NaN	NaN	9e-07	1e-07
0	0	-0.20758349	0	-0.707107	0.707107	0	0.7071073	-0.7071073	0	-0.70710725	-0.70710737	0	0	0	0	0.018740768	-0.008649525	1.3775812e-10	NaN	NaN	NaN	9.076923e-07	1e-07
0	0	-0.20758349	0	-0.707107	0.707107	0	0.70710737	-0.70710737	0	-0.70710737	-0.7071073	0	0	0	0	0.017515827	-0.008396897	-2.4272595e-09	NaN	NaN	NaN	9.153846e-07	1e-07
0	0	-0.20758349	0	-0.707107	0.707107	0	0.7071073	-0.7071073	0	-0.7071073	-0.7071073	0	0	0	0	0.016317658	-0.008160612	-1.9208528e-09	NaN	NaN	NaN	9.230769e-07	1e-07
0	0	-0.20758349	0	-0.707107	0.707107	0	0.7071073	-0.70710725	0	-0.70710725	-0.70710737	0	0	0	0	0.01514475	-0.007940558	-4.5498987e-09	NaN	NaN	NaN	9.307692e-07	1e-07
0	0	-0.20758349	0	-0.707107	0.707107	0	0.7071073	-0.70710737	0	-0.70710737	-0.7071073	0	0	0	0	0.013995705	-0.0077365553	-4.4878106e-09	NaN	NaN	NaN	9.3846154e-07	1e-07
0	0	-0.20758347	0	-0.707107	0.707107	0	0.70710737	-0.7071073	0	-0.70710737	-0.70710737	0	0	0	0	0.012868914	-0.0075484165	-5.683008e-09	NaN	NaN	NaN	9.461538e-07	1e-07
0	0	-0.20758349	0	-0.707107	0.707107	0	0.7071073	-0.70710725	0	-0.70710737	-0.70710725	0	0	0	0	0.011762845	-0.007375913	-3.0345595e-09	NaN	NaN	NaN	9.538461e-07	1e-07
0	0	-0.20758349	0	-0.707107	0.707107	0	0.70710737	-0.7071073	0	-0.7071073	-0.7071073	0	0	0	0	0.010675849	-0.0072188224	-2.1924886e-09	NaN	NaN	NaN	9.615385e-07	1e-07
0	0	-0.20758349	0	-0.707107	0.707107	0	0.70710737	-0.7071073	0	-0.70710737	-0.7071073	0	0	0	0	0.009606367	-0.0070769023	-1.2301219e-09	NaN	NaN	NaN	9.692308e-07	1e-07
0	0	-0.20758349	0	-0.707107	0.707107	0	0.7071073	-0.7071073	0	-0.70710737	-0.70710737	0	0	0	0	0.008552658	-0.0069499295	-2.225473e-09	NaN	NaN	NaN	9.76923e-07	1e-07
0	0	-0.20758349	0	-0.707107	0.707107	0	0.70710737	-0.7071073	0	-0.70710737	-0.7071073	0	0	0	0	0.007513106	-0.006837678	-1.8354815e-09	NaN	NaN	NaN	9.846154e-07	1e-07
0	0	-0.20758349	0	-0.707107	0.707107	0	0.70710737	-0.7071073	0	-0.7071073	-0.70710737	0	0	0	0	0.0064860904	-0.006739945	-7.528191e-10	NaN	NaN	NaN	9.923077e-07	1e-07
0	0	-0.20758349	0	-0.707107	0.707107	0	0.70710737	-0.70710737	0	-0.70710737	-0.7071073	0	0	0	0	0.0054698805	-0.0066565406	2.363231e-09	NaN	NaN	NaN	1e-06	1e-07
0	0	-0.20758349	0	-0.707107	0.707107	0	0.7071073	-0.70710737	0	-0.70710737	-0.7071073	0	0	0	0	0.0044628545	-0.006587301	3.1102294e-09	NaN	NaN	NaN	1.0076923e-06	1e-07
0	0	-0.20758349	0	-0.707107	0.707107	0	0.70710737	-0.70710737	0	-0.70710725	-0.70710725	0	0	0	0	0.00346336	-0.0065320823	3.1044085e-09	NaN	NaN	NaN	1.0153847e-06	1e-07
0	0	-0.20758349	0	-0.707107	0.707107	0	0.70710737	-0.70710737	0	-0.7071073	-0.7071073	0	0	0	0	0.0024696193	-0.006490773	1.1078858e-09	NaN	NaN	NaN	1.023077e-06	1e-07
0	0	-0.20758349	0	-0.707107	0.707107	0	0.70710737	-0.70710737	0	-0.7071073	-0.7071073	0	0	0	0	0.0014801244	-0.0064632827	-9.934108e-10	NaN	NaN	NaN	1.0307692e-06	1e-07
0	0	-0.20758349	0	-0.707107	0.707107	0	0.70710737	-0.7071073	0	-0.70710725	-0.70710725	0	0	0	0	0.000493098	-0.006449553	-1.6589183e-09	NaN	NaN	NaN	1.0384615e-06	1e-07
0	0	-0.20758349	0	-0.707107	0.707107	0	0.7071073	-0.70710737	0	-0.70710737	-0.70710737	0	0	0	0	NaN	NaN	NaN	NaN	NaN	NaN	1.0461539e-06	1e-07
0	0	-0.20758349	0	-0.707107	0.707107	0	0.70710737	-0.7071073	0	-0.70710725	-0.70710725	0	0	0	0	-0.0004930926	-0.0064495527	-3.5506673e-10	NaN	NaN	NaN	1.0538462e-06	1e-07
0	0	-0.20758349	0	-0.707107	0.707107	0	0.7071073	-0.70710737	0	-0.70710737	-0.70710737	0	0	0	0	-0.0014801208	-0.0064632813	-5.646143e-10	NaN	NaN	NaN	1.0615385e-06	1e-07
0	0	-0.20758349	0	-0.707107	0.707107	0	0.70710737	-0.7071073	0	-0.70710725	-0.70710737	0	0	0	0	-0.0024696316	-0.006490772	-6.2088173e-10	NaN	NaN	NaN	1.0692307e-06	1e-07
0	0	-0.20758349	0	-0.707107	0.707107	0	0.70710725	-0.70710737	0	-0.70710737	-0.70710737	0	0	0	0	-0.0034633311	-0.0065320795	-3.2499277e-09	NaN	NaN	NaN	1.0769231e-06	1e-07
0	0	-0.20758349	0	-0.707107	0.707107	0	0.70710737	-0.7071073	0	-0.70710737	-0.70710737	0	0	0	0	-0.004462847	-0.0065872963	-3.1587357e-09	NaN	NaN	NaN	1.0846154e-06	1e-07
0	0	-0.20758349	0	-0.707107	0.707107	0	0.70710737	-0.70710725	0	-0.70710737	-0.7071073	0	0	0	0	-0.0054698987	-0.0066565345	-4.0978194e-09	NaN	NaN	NaN	1.0923077e-06	1e-07
0	0	-0.20758349	0	-0.70710707	0.707107	0	0.70710737	-0.70710737	0	-0.70710737	-0.7071073	0	0	0	0	-0.006486093	-0.006739938	-2.339948e-09	NaN	NaN	NaN	1.1e-06	1e-07
0	0	-0.20758347	0	-0.707107	0.707107	0	0.7071073	-0.7071073	0	-0.7071073	-0.70710737	0	0	0	0	-0.0075131077	-0.006837673	-1.4668331e-09	NaN	NaN	NaN	1.1076924e-06	1e-07
0	0	-0.20758349	0	-0.70710707	0.707107	0	0.70710737	-0.70710737	0	-0.70710737	-0.70710737	0	0	0	0	-0.008552644	-0.0069499244	-7.178945e-11	NaN	NaN	NaN	1.1153846e-06	1e-07
0	0	-0.20758347	0	-0.707107	0.707107	0	0.7071073	-0.7071073	0	-0.70710737	-0.70710725	0	0	0	0	-0.009606328	-0.007076901	5.9759864e-10	NaN	NaN	NaN	1.1230769e-06	1e-07
0	0	-0.20758349	0	-0.707107	0.707107	0	0.70710737	-0.70710737	0	-0.70710737	-0.70710737	0	0	0	0	-0.010675858	-0.0072188205	2.9220246e-09	NaN	NaN	NaN	1.1307692e-06	1e-07
0	0	-0.20758349	0	-0.707107	0.707107	0	0.7071073	-0.70710737	0	-0.70710737	-0.70710725	0	0	0	0	-0.011762847	-0.007375916	2.4893476e-09	NaN	NaN	NaN	1.1384616e-06	1e-07
0	0	-0.20758349	0	-0.707107	0.707107	0	0.7071073	-0.70710725	0	-0.70710737	-0.7071073	0	0	0	0	-0.012868897	-0.007548414	2.4893476e-09	NaN	NaN	NaN	1.1461539e-06	1e-07
0	0	-0.20758349	0	-0.707107	0.707107	0	0.7071073	-0.70710737	0	-0.70710737	-0.7071073	0	0	0	0	-0.013995715	-0.0077365567	2.1847275e-09	NaN	NaN	NaN	1.1538461e-06	1e-07
0	0	-0.20758349	0	-0.707107	0.707107	0	0.70710737	-0.70710725	0	-0.70710737	-0.70710725	0	0	0	0	-0.01514476	-0.007940551	1.6414561e-09	NaN	NaN	NaN	1.1615384e-06	1e-07
0	0	-0.20758349	0	-0.707107	0.707107	0	0.70710737	-0.7071073	0	-0.70710725	-0.70710737	0	0	0	0	-0.016317658	-0.008160613	2.4971087e-09	NaN	NaN	NaN	1.1692308e-06	1e-07
0	0	-0.20758349	0	-0.707107	0.707107	0	0.7071073	-0.7071073	0	-0.7071073	-0.70710737	0	0	0	0	-0.017515844	-0.008396892	1.1816155e-09	NaN	NaN	NaN	1.1769231e-06	1e-07
0	0	-0.20758349	0	-0.707107	0.707107	0	0.7071073	-0.70710737	0	-0.7071073	-0.70710737	0	0	0	0	-0.018740755	-0.008649524	1.5599653e-09	NaN	NaN	NaN	1.1846154e-06	1e-07
0	0	-0.20758349	0	-0.707107	0.707107	0	0.7071073	-0.70710737	0	-0.70710737	-0.70710725	0	0	0	0	-0.019993752	-0.008918557	9.371434e-10	NaN	NaN	NaN	1.1923076e-06	1e-07
0	0	-0.20758349	0	-0.707107	0.707107	0	0.7071073	-0.7071073	0	-0.70710725	-0.7071073	0	0	0	0	-0.02127607	-0.009203984	2.4447216e-10	NaN	NaN	NaN	1.2e-06	1e-07
0	0	-0.20758349	0	-0.707107	0.707107	0	0.70710737	-0.7071073	0	-0.70710737	-0.70710725	0	0	0	0	-0.022588769	-0.009505675	4.346172e-10	NaN	NaN	NaN	1.2076923e-06	1e-07
0	0	-0.20758349	0	-0.707107	0.707107	0	0.7071073	-0.70710737	0	-0.70710737	-0.70710737	0	0	0	0	-0.023932874	-0.009823396	3.3333587e-09	NaN	NaN	NaN	1.2153846e-06	1e-07
0	0	-0.20758349	0	-0.707107	0.707107	0	0.70710737	-0.70710737	0	-0.70710737	-0.7071073	0	0	0	0	-0.025309185	-0.0101567395	3.1587357e-09	NaN	NaN	NaN	1.2230769e-06	1e-07
0	0	-0.20758349	0	-0.707107	0.707107	0	0.70710737	-0.70710725	0	-0.70710737	-0.7071073	0	0	0	0	-0.026718132	-0.010505139	4.8040723e-09	NaN	NaN	NaN	1.2307693e-06	1e-07
0	0	-0.20758347	0	-0.707107	0.707107	0	0.70710737	-0.70710737	0	-0.70710725	-0.70710725	0	0	0	0	-0.028160036	-0.010867788	2.832773e-09	NaN	NaN	NaN	1.2384616e-06	1e-07
0	0	-0.20758347	0	-0.707107	0.707107	0	0.70710737	-0.70710737	0	-0.70710725	-0.70710737	0	0	0	0	-0.02963489	-0.011243646	3.857228e-09	NaN	NaN	NaN	1.2461538e-06	1e-07
0	0	-0.20758349	0	-0.707107	0.707107	0	0.70710737	-0.70710737	0	-0.70710737	-0.70710737	0	0	0	0	-0.0311422	-0.011631361	1.9324944e-09	NaN	NaN	NaN	1.2538461e-06	1e-07
0	0	-0.20758349	0	-0.707107	0.707107	0	0.70710737	-0.70710737	0	-0.70710737	-0.70710725	0	0	0	0	-0.032681033	-0.012029244	2.8250118e-09	NaN	NaN	NaN	1.2615385e-06	1e-07
0	0	-0.20758349	0	-0.707107	0.707107	0	0.7071073	-0.70710737	0	-0.70710737	-0.70710725	0	0	0	0	-0.034249954	-0.012435211	8.0326573e-10	NaN	NaN	NaN	1.2692308e-06	1e-07
0	0	-0.20758349	0	-0.707107	0.707107	0	0.7071073	-0.70710737	0	-0.7071073	-0.70710737	0	0	0	0	-0.03584691	-0.012846752	2.530093e-09	NaN	NaN	NaN	1.2769231e-06	1e-07
0	0	-0.20758349	0	-0.707107	0.707107	0	0.7071073	-0.70710737	0	-0.70710737	-0.70710737	0	0	0	0	-0.037469063	-0.013260846	-1.9635384e-09	NaN	NaN	NaN	1.2846153e-06	1e-07
0	0	-0.20758349	0	-0.707107	0.707107	0	0.7071073	-0.70710737	0	-0.70710737	-0.70710737	0	0	0	0	-0.039112583	-0.01367395	-5.898376e-10	NaN	NaN	NaN	1.2923077e-06	1e-07
0	0	-0.20758349	0	-0.707107	0.707107	0	0.70710737	-0.70710737	0	-0.70710737	-0.70710725	0	0	0	0	-0.040772866	-0.014081921	-2.4951683e-09	NaN	NaN	NaN	1.3e-06	1e-07
0	0	-0.20758349	0	-0.707107	0.707107	0	0.70710737	-0.70710737	0	-0.70710737	-0.70710725	0	0	0	0	-0.042443883	-0.01448001	7.21775e-10	NaN	NaN	NaN	1.3076923e-06	1e-07
0	0	-0.20758349	0	-0.707107	0.707107	0	0.7071073	-0.70710737	0	-0.70710737	-0.7071073	0	0	0	0	-0.04411836	-0.014862807	-5.743156e-10	NaN	NaN	NaN	1.3153846e-06	1e-07
0	0	-0.20758349	0	-0.707107	0.707107	0	0.70710737	-0.70710737	0	-0.7071073	-0.7071073	0	0	0	0	-0.045787383	-0.015224251	2.3283065e-11	NaN	NaN	NaN	1.323077e-06	1e-07
0	0	-0.20758349	0	-0.707107	0.707107	0	0.70710737	-0.70710737	0	-0.70710737	-0.70710725	0	0	0	0	-0.047440145	-0.015557642	-2.8094898e-09	NaN	NaN	NaN	1.3307692e-06	1e-07
0	0	-0.20758349	0	-0.707107	0.707107	0	0.7071073	-0.7071073	0	-0.70710737	-0.70710725	0	0	0	0	-0.04906393	-0.015855687	-5.9759864e-10	NaN	NaN	NaN	1.3384615e-06	1e-07
0	0	-0.20758349	0	-0.707107	0.707107	0	0.7071073	-0.70710737	0	-0.7071073	-0.70710725	0	0	0	0	-0.050643437	-0.016110582	-1.4668331e-09	NaN	NaN	NaN	1.3461538e-06	1e-07
0	0	-0.20758349	0	-0.707107	0.707107	0	0.7071073	-0.70710725	0	-0.70710725	-0.70710725	0	0	0	0	-0.052160725	-0.016314171	-1.9169724e-09	NaN	NaN	NaN	1.3538462e-06	1e-07
0	0	-0.20758349	0	-0.707107	0.707107	0	0.70710737	-0.7071073	0	-0.70710737	-0.70710725	0	0	0	0	-0.05359472	-0.016458124	-4.346172e-09	NaN	NaN	NaN	1.3615385e-06	1e-07
0	0	-0.20758349	0	-0.707107	0.707107	0	0.70710737	-0.70710737	0	-0.70710725	-0.70710725	0	0	0	0	-0.05492107	-0.016534233	-1.3038516e-09	NaN	NaN	NaN	1.3692307e-06	1e-07