# t (s)	mx ()	my ()	mz ()	m.region32x ()	m.region32y ()	m.region32z ()	m.region33x ()	m.region33y ()	m.region33z ()	m.region34x ()	m.region34y ()	m.region34z ()	B_extx (T)	B_exty (T)	B_extz (T)	B_eff.region6x (T)	B_eff.region6y (T)	B_eff.region6z (T)	B_eff.region9x (T)	B_eff.region9y (T)	B_eff.region9z (T)	step_x (No unit)	step_y (No unit)
0	-0.20502731	-0.24396226	-2.4192562e-10	-0.9984587	-0.00030077973	-1.7860057e-11	0.0765573	-0.0004023888	-7.707201e-10	-0.00029165598	-0.9984211	3.218252e-10	0	0	0	NaN	NaN	NaN	NaN	NaN	NaN	0	1e-07
0	-0.2050233	-0.24838251	5.2329814e-11	-0.99843717	-0.0062546376	-1.588394e-11	0.07655625	-0.007722028	8.068854e-11	-0.0002943524	-0.9984507	9.4138315e-11	0	-0.010000044	0	NaN	NaN	NaN	NaN	NaN	NaN	0	1e-07
0	-0.20501216	-0.2528029	3.501348e-11	-0.9983771	-0.012208909	-2.195336e-11	0.076550364	-0.015042436	3.1617816e-11	-0.00029701242	-0.9984792	1.1157414e-10	0	-0.020000087	0	NaN	NaN	NaN	NaN	NaN	NaN	0	1e-07
0	-0.20499381	-0.25722387	-8.7007665e-11	-0.9982785	-0.018163959	-1.7614132e-10	0.076539665	-0.02236431	4.397837e-11	-0.00029963895	-0.99850684	-2.5953278e-10	0	-0.029999916	0	NaN	NaN	NaN	NaN	NaN	NaN	0	1e-07
0	-0.20496836	-0.2616458	-5.4433444e-11	-0.9981413	-0.02412017	-4.6836365e-11	0.07652413	-0.029688327	6.3273844e-12	-0.00030223024	-0.9985334	-1.8820098e-10	0	-0.040000174	0	NaN	NaN	NaN	NaN	NaN	NaN	0	1e-07
0	-0.2049357	-0.26606908	5.483387e-12	-0.9979654	-0.030077923	-4.7428773e-11	0.07650376	-0.037015226	9.540642e-12	-0.00030478844	-0.99855936	5.2420936e-11	0	-0.0499998	0	NaN	NaN	NaN	NaN	NaN	NaN	0	1e-07
0	-0.20489585	-0.27049407	2.3636697e-11	-0.9977508	-0.03603758	5.3297023e-11	0.076478526	-0.044345677	-1.8213448e-11	-0.0003073139	-0.9985844	7.575695e-11	0	-0.05999983	0	NaN	NaN	NaN	NaN	NaN	NaN	0	1e-07
0	-0.20484884	-0.27492118	-4.1092913e-13	-0.99749726	-0.04199953	-5.5467603e-11	0.07644845	-0.051680416	-3.411607e-11	-0.00030980655	-0.9986088	1.09456125e-10	0	-0.069999784	0	NaN	NaN	NaN	NaN	NaN	NaN	0	1e-07
0	-0.20479454	-0.27935073	-1.61149e-11	-0.99720496	-0.04796413	2.581295e-11	0.07641349	-0.05902014	-1.886138e-11	-0.00031226824	-0.99863225	-5.9342316e-11	0	-0.08000035	0	NaN	NaN	NaN	NaN	NaN	NaN	0	1e-07
0	-0.20473303	-0.28378323	4.642412e-11	-0.99687356	-0.05393176	5.7073072e-11	0.076373644	-0.06636558	2.5832554e-12	-0.00031469885	-0.99865514	1.3048501e-10	0	-0.09000014	0	NaN	NaN	NaN	NaN	NaN	NaN	0	1e-07
0	-0.20466422	-0.28821898	4.2590764e-11	-0.9965029	-0.059902776	-1.05948555e-10	0.07632887	-0.07371747	2.8589669e-11	-0.0003171002	-0.9986774	2.2916194e-10	0	-0.0999996	0	NaN	NaN	NaN	NaN	NaN	NaN	0	1e-07
0	-0.2045881	-0.29265842	1.894273e-12	-0.9960927	-0.065877564	-1.742296e-12	0.07627916	-0.08107655	1.7064891e-12	-0.00031947094	-0.998699	6.580983e-12	0	-0.11000039	0	NaN	NaN	NaN	NaN	NaN	NaN	0	1e-07
0	-0.20450467	-0.29710197	6.650635e-12	-0.9956431	-0.07185647	-1.1274971e-10	0.07622449	-0.08844356	-9.329791e-12	-0.00032181435	-0.9987199	1.5227034e-10	0	-0.11999966	0	NaN	NaN	NaN	NaN	NaN	NaN	0	1e-07
0	-0.20441386	-0.30154997	5.365635e-11	-0.9951536	-0.07783987	2.9320865e-11	0.07616481	-0.095819265	-1.636361e-11	-0.0003241299	-0.99874026	2.1887442e-10	0	-0.13000023	0	NaN	NaN	NaN	NaN	NaN	NaN	0	1e-07
0	-0.20431563	-0.30600286	3.024418e-11	-0.99462426	-0.08382809	1.9159875e-11	0.07610012	-0.10320441	-4.039113e-12	-0.00032641905	-0.99876016	1.12103646e-10	0	-0.13999957	0	NaN	NaN	NaN	NaN	NaN	NaN	0	1e-07
0	-0.20420997	-0.31046107	-5.3640616e-11	-0.9940545	-0.089821525	-9.095638e-11	0.076030344	-0.11059976	-7.442194e-11	-0.00032868094	-0.9987795	-6.429696e-12	0	-0.1500008	0	NaN	NaN	NaN	NaN	NaN	NaN	0	1e-07
0	-0.2040968	-0.3149249	-4.4297333e-11	-0.99344444	-0.09582047	-6.460941e-11	0.075955465	-0.11800608	-5.1260062e-11	-0.0003309191	-0.99879825	-3.2640165e-11	0	-0.1600007	0	NaN	NaN	NaN	NaN	NaN	NaN	0	1e-07
0	-0.20397611	-0.3193949	7.536947e-11	-0.9927936	-0.10182531	9.127134e-11	0.07587544	-0.12542416	1.1333325e-10	-0.0003331316	-0.99881643	2.972789e-11	0	-0.16999887	0	NaN	NaN	NaN	NaN	NaN	NaN	0	1e-07
0	-0.20384786	-0.32387134	8.4672054e-11	-0.99210185	-0.10783637	9.7054025e-11	0.07579021	-0.13285476	1.7447252e-10	-0.00033532086	-0.9988344	-4.0544908e-11	0	-0.18000028	0	NaN	NaN	NaN	NaN	NaN	NaN	0	1e-07
0	-0.20371199	-0.32835472	-3.480108e-11	-0.9913688	-0.11385399	-4.2878534e-11	0.07569975	-0.14029868	-4.09698e-11	-0.0003374876	-0.99885154	-3.2110658e-11	0	-0.19000043	0	NaN	NaN	NaN	NaN	NaN	NaN	0	1e-07
0	-0.20356846	-0.33284545	-4.354825e-11	-0.9905943	-0.11987846	-1.00519634e-10	0.07560396	-0.14775677	-5.362046e-12	-0.0003396329	-0.99886847	-7.189913e-11	0	-0.1999992	0	NaN	NaN	NaN	NaN	NaN	NaN	0	1e-07
0	-0.2034172	-0.33734387	1.6179447e-11	-0.989778	-0.12591015	1.21158e-10	0.075502835	-0.15522984	5.2645575e-11	-0.00034175676	-0.99888504	-1.3971352e-10	0	-0.20999922	0	NaN	NaN	NaN	NaN	NaN	NaN	0	1e-07
0	-0.20325822	-0.34185052	5.1581017e-11	-0.98891944	-0.13194934	1.7150669e-12	0.07539628	-0.16271877	3.520785e-11	-0.0003438612	-0.9989011	1.5045488e-10	0	-0.22000077	0	NaN	NaN	NaN	NaN	NaN	NaN	0	1e-07
0	-0.20309137	-0.34636578	2.199715e-11	-0.98801845	-0.13799636	-9.3804915e-11	0.07528425	-0.17022438	6.3174986e-11	-0.0003459454	-0.99891675	7.488705e-11	0	-0.23000132	0	NaN	NaN	NaN	NaN	NaN	NaN	0	1e-07
0	-0.20291671	-0.35089	7.1222174e-11	-0.9870746	-0.14405148	1.3121522e-10	0.075166635	-0.17774759	9.4446825e-11	-0.000348013	-0.998932	5.748905e-12	0	-0.23999932	0	NaN	NaN	NaN	NaN	NaN	NaN	0	1e-07
0	-0.20273416	-0.35542384	-2.675464e-11	-0.9860877	-0.15011504	-6.900686e-11	0.075043395	-0.18528926	-4.7731773e-11	-0.00035006192	-0.9989469	3.755699e-11	0	-0.25	0	NaN	NaN	NaN	NaN	NaN	NaN	0	1e-07
0	-0.20254363	-0.3599675	-2.198841e-11	-0.98505735	-0.1561873	-8.7343674e-11	0.07491445	-0.19285029	6.0300168e-12	-0.00035209532	-0.99896157	-1.5506913e-11	0	-0.26000047	0	NaN	NaN	NaN	NaN	NaN	NaN	0	1e-07
0	-0.20234512	-0.36452156	-3.7936286e-11	-0.98398316	-0.1622686	-1.1193362e-10	0.07477968	-0.20043162	-2.143834e-11	-0.0003541133	-0.99897575	-1.0817018e-11	0	-0.26999894	0	NaN	NaN	NaN	NaN	NaN	NaN	0	1e-07
0	-0.20213856	-0.36908644	-1.7858649e-11	-0.9828647	-0.16835915	-1.3573491e-10	0.074639015	-0.20803411	6.80873e-11	-0.000356116	-0.9989897	-5.597618e-11	0	-0.27999914	0	NaN	NaN	NaN	NaN	NaN	NaN	0	1e-07
0	-0.20192388	-0.37366256	1.648819e-11	-0.9817016	-0.1744593	-2.276022e-11	0.07449238	-0.2156587	5.4437493e-11	-0.00035810572	-0.9990033	-1.8910871e-12	0	-0.28999975	0	NaN	NaN	NaN	NaN	NaN	NaN	0	1e-07
0	-0.20170109	-0.37825042	1.3627742e-11	-0.9804938	-0.1805693	-1.9906524e-10	0.07433963	-0.22330636	7.286083e-11	-0.00036008222	-0.99901646	1.2640027e-10	0	-0.3000016	0	NaN	NaN	NaN	NaN	NaN	NaN	0	1e-07
0	-0.20147008	-0.3828504	-7.7605956e-11	-0.97924054	-0.1866895	5.2760747e-11	0.074180685	-0.23097798	-1.4695635e-10	-0.00036204705	-0.9990295	-1.2205076e-10	0	-0.30999878	0	NaN	NaN	NaN	NaN	NaN	NaN	0	1e-07
0	-0.20123085	-0.38746312	6.292444e-11	-0.9779414	-0.19282012	1.0024437e-10	0.074015416	-0.2386746	3.6450454e-11	-0.0003640008	-0.9990422	9.9282076e-11	0	-0.3200014	0	NaN	NaN	NaN	NaN	NaN	NaN	0	1e-07
0	-0.2009833	-0.39208892	3.3857705e-11	-0.9765962	-0.19896153	-5.4214872e-11	0.0738437	-0.24639714	9.047873e-11	-0.00036594414	-0.9990546	3.9183323e-11	0	-0.33000147	0	NaN	NaN	NaN	NaN	NaN	NaN	0	1e-07
0	-0.20072746	-0.3967283	2.8407625e-11	-0.9752044	-0.20511393	1.00194325e-10	0.07366543	-0.25414664	6.6954914e-11	-0.00036787847	-0.9990669	-9.334406e-11	0	-0.33999774	0	NaN	NaN	NaN	NaN	NaN	NaN	0	1e-07
0	-0.20046319	-0.40138185	7.420745e-11	-0.9737655	-0.21127774	-9.1676465e-11	0.07348046	-0.26192412	1.9460568e-10	-0.00036980386	-0.99907863	6.5772006e-11	0	-0.35000098	0	NaN	NaN	NaN	NaN	NaN	NaN	0	1e-07
0	-0.20019047	-0.40604994	-9.367536e-11	-0.972279	-0.21745323	-2.1290496e-10	0.07328862	-0.2697306	-1.0651389e-10	-0.00037172306	-0.99909043	1.7776219e-12	0	-0.36000055	0	NaN	NaN	NaN	NaN	NaN	NaN	0	1e-07
0	-0.19990925	-0.41073325	2.6386497e-11	-0.9707445	-0.22364073	3.7622794e-11	0.07308978	-0.27756715	4.5838253e-11	-0.00037363498	-0.9991017	-5.446331e-12	0	-0.3699992	0	NaN	NaN	NaN	NaN	NaN	NaN	0	1e-07
0	-0.19961949	-0.4154321	-3.4669498e-12	-0.9691614	-0.22984055	4.0491586e-11	0.07288376	-0.28543478	9.281276e-13	-0.00037554145	-0.9991129	-5.5030636e-11	0	-0.38000086	0	NaN	NaN	NaN	NaN	NaN	NaN	0	1e-07
0	-0.1993211	-0.42014706	-1.02816776e-10	-0.96752924	-0.2360531	-3.7055366e-11	0.07267041	-0.2933345	-2.1019558e-10	-0.00037744353	-0.99912393	-3.192155e-11	0	-0.38999942	0	NaN	NaN	NaN	NaN	NaN	NaN	0	1e-07
0	-0.19901404	-0.42487872	2.0032963e-11	-0.96584713	-0.24227871	8.196069e-12	0.07244954	-0.30126742	4.3889184e-11	-0.00037934157	-0.99913454	3.4039568e-13	0	-0.3999984	0	NaN	NaN	NaN	NaN	NaN	NaN	0	1e-07
0	-0.19869818	-0.42962748	2.7446503e-11	-0.9641149	-0.2485178	-9.322267e-11	0.072220944	-0.30923447	4.8039038e-11	-0.00038123634	-0.9991451	1.2208859e-10	0	-0.4100025	0	NaN	NaN	NaN	NaN	NaN	NaN	0	1e-07
0	-0.19837356	-0.43439397	6.747028e-11	-0.96233183	-0.25477064	1.9898695e-10	0.07198441	-0.3172367	9.111453e-11	-0.00038312955	-0.9991554	-6.9743294e-11	0	-0.41999844	0	NaN	NaN	NaN	NaN	NaN	NaN	0	1e-07
0	-0.19804004	-0.4391785	2.3306756e-11	-0.9604969	-0.2610378	-5.122287e-13	0.071739726	-0.32527497	2.0463806e-11	-0.00038502016	-0.9991654	6.1573795e-11	0	-0.42999703	0	NaN	NaN	NaN	NaN	NaN	NaN	0	1e-07
0	-0.1976976	-0.44398165	5.5494987e-11	-0.95860964	-0.26731953	1.9334705e-10	0.07148663	-0.33335024	3.6564536e-11	-0.0003869106	-0.9991753	-2.1634037e-11	0	-0.44000155	0	NaN	NaN	NaN	NaN	NaN	NaN	0	1e-07
0	-0.19734612	-0.44880384	2.013833e-11	-0.9566694	-0.27361634	-1.4088039e-10	0.07122489	-0.3414634	3.4931346e-11	-0.000388801	-0.9991849	1.6040201e-10	0	-0.44999793	0	NaN	NaN	NaN	NaN	NaN	NaN	0	1e-07
0	-0.19698559	-0.45364562	-5.2404404e-11	-0.9546753	-0.27992868	-2.176575e-10	0.07095422	-0.34961528	5.850016e-13	-0.00039069075	-0.99919444	-4.576431e-12	0	-0.46000263	0	NaN	NaN	NaN	NaN	NaN	NaN	0	1e-07
0	-0.19661586	-0.4585073	1.34996e-11	-0.9526264	-0.286257	9.8630566e-12	0.07067431	-0.3578066	1.5260668e-11	-0.00039258157	-0.99920374	2.0083345e-11	0	-0.470001	0	NaN	NaN	NaN	NaN	NaN	NaN	0	1e-07
0	-0.19623694	-0.46338925	9.6734246e-11	-0.9505221	-0.29260173	3.0321934e-10	0.07038489	-0.36603808	5.6486406e-11	-0.00039447375	-0.9992129	7.2617745e-12	0	-0.47999865	0	NaN	NaN	NaN	NaN	NaN	NaN	0	1e-07
0	-0.19584864	-0.46829188	-8.630388e-11	-0.9483613	-0.2989634	-1.3297534e-10	0.07008558	-0.3743103	-1.4431539e-10	-0.00039636713	-0.99922186	1.800315e-11	0	-0.49000236	0	NaN	NaN	NaN	NaN	NaN	NaN	0	1e-07
0	-0.19545102	-0.47321558	7.674524e-11	-0.94614315	-0.30534247	4.2546747e-11	0.069776006	-0.3826238	9.007619e-11	-0.00039826232	-0.9992308	1.2171036e-10	0	-0.5	0	NaN	NaN	NaN	NaN	NaN	NaN	0	1e-07
0	-0.19584866	-0.46829197	1.5941786e-11	-0.94836134	-0.2989634	-4.454153e-11	0.07008557	-0.37431046	-7.610646e-12	-0.00039636702	-0.999222	1.2129432e-10	0	-0.49000236	0	NaN	NaN	NaN	NaN	NaN	NaN	0	1e-07
0	-0.19623692	-0.46338928	-7.85345e-11	-0.95052207	-0.29260173	-8.734503e-11	0.07038489	-0.3660382	-1.7364422e-10	-0.00039447393	-0.9992129	5.4879348e-11	0	-0.47999865	0	NaN	NaN	NaN	NaN	NaN	NaN	0	1e-07
0	-0.19661587	-0.45850733	9.208035e-11	-0.95262647	-0.286257	2.1926905e-10	0.07067432	-0.35780677	1.6155044e-10	-0.0003925817	-0.9992038	-1.0699771e-10	0	-0.470001	0	NaN	NaN	NaN	NaN	NaN	NaN	0	1e-07
0	-0.19698557	-0.45364565	7.311435e-11	-0.9546754	-0.27992868	5.5791625e-11	0.07095422	-0.34961542	1.2038659e-10	-0.00039069072	-0.9991945	4.3041144e-11	0	-0.46000263	0	NaN	NaN	NaN	NaN	NaN	NaN	0	1e-07
0	-0.19734614	-0.4488039	-7.831387e-11	-0.9566694	-0.27361634	-2.8712394e-11	0.07122488	-0.3414635	-1.9836055e-10	-0.00038880054	-0.9991849	4.0469263e-11	0	-0.44999793	0	NaN	NaN	NaN	NaN	NaN	NaN	0	1e-07
0	-0.1976976	-0.44398168	-8.029556e-11	-0.95860964	-0.26731956	-5.6395374e-11	0.07148663	-0.33335033	-6.0588624e-11	-0.0003869107	-0.99917525	-1.723915e-10	0	-0.44000155	0	NaN	NaN	NaN	NaN	NaN	NaN	0	1e-07
0	-0.19804004	-0.43917853	-1.0306213e-10	-0.96049684	-0.26103777	-1.5429988e-10	0.07173972	-0.32527506	-1.4211743e-10	-0.00038502028	-0.9991655	-3.366135e-11	0	-0.42999703	0	NaN	NaN	NaN	NaN	NaN	NaN	0	1e-07
0	-0.19837356	-0.43439397	-8.707917e-11	-0.96233165	-0.25477067	-1.6841165e-10	0.07198441	-0.31723672	-7.3875614e-11	-0.00038312926	-0.9991554	-6.921379e-11	0	-0.41999844	0	NaN	NaN	NaN	NaN	NaN	NaN	0	1e-07
0	-0.19869818	-0.4296275	1.4306642e-12	-0.964115	-0.24851778	-8.120725e-11	0.072220944	-0.3092346	-3.581588e-11	-0.0003812362	-0.9991451	1.4481945e-10	0	-0.4100025	0	NaN	NaN	NaN	NaN	NaN	NaN	0	1e-07
0	-0.199014	-0.42487878	-1.9610074e-11	-0.9658472	-0.24227874	-4.9673037e-11	0.07244954	-0.3012675	-8.750977e-11	-0.0003793419	-0.99913454	1.1494027e-10	0	-0.3999984	0	NaN	NaN	NaN	NaN	NaN	NaN	0	1e-07
0	-0.1993211	-0.4201471	-5.864125e-11	-0.96752924	-0.23605311	-6.051695e-11	0.072670415	-0.29333463	-1.3823476e-10	-0.00037744356	-0.9991239	5.083242e-11	0	-0.38999942	0	NaN	NaN	NaN	NaN	NaN	NaN	0	1e-07
0	-0.19961947	-0.41543213	3.3056998e-11	-0.9691614	-0.22984056	6.8145736e-12	0.07288376	-0.28543487	1.2986333e-10	-0.0003755417	-0.9991129	-8.9486245e-11	0	-0.38000086	0	NaN	NaN	NaN	NaN	NaN	NaN	0	1e-07
0	-0.19990927	-0.41073325	6.601016e-11	-0.97074443	-0.22364073	7.4559636e-11	0.07308978	-0.27756724	1.0385607e-10	-0.00037363515	-0.9991018	2.3525123e-11	0	-0.3699992	0	NaN	NaN	NaN	NaN	NaN	NaN	0	1e-07
0	-0.20019048	-0.40605003	1.8360997e-11	-0.972279	-0.21745323	-1.1064083e-10	0.0732886	-0.26973072	7.7841775e-11	-0.00037172312	-0.9990904	5.16645e-11	0	-0.36000055	0	NaN	NaN	NaN	NaN	NaN	NaN	0	1e-07
0	-0.20046319	-0.4013819	-8.035539e-12	-0.9737655	-0.21127774	-1.3457845e-10	0.07348045	-0.2619242	3.0518785e-11	-0.00036980392	-0.99907863	4.6293813e-11	0	-0.35000098	0	NaN	NaN	NaN	NaN	NaN	NaN	0	1e-07
0	-0.20072746	-0.39672834	-7.419944e-11	-0.9752044	-0.20511393	-1.0751413e-10	0.07366543	-0.2541467	-9.055853e-11	-0.00036787847	-0.9990668	-4.7466288e-11	0	-0.33999774	0	NaN	NaN	NaN	NaN	NaN	NaN	0	1e-07
0	-0.20098333	-0.39208895	5.4167653e-11	-0.9765962	-0.19896153	-5.7849833e-11	0.07384371	-0.2463972	1.3100099e-10	-0.00036594417	-0.9990547	5.7791622e-11	0	-0.33000147	0	NaN	NaN	NaN	NaN	NaN	NaN	0	1e-07
0	-0.20123085	-0.38746312	1.0580585e-11	-0.97794145	-0.1928201	-1.2620036e-11	0.074015416	-0.23867467	-4.4042114e-11	-0.00036400053	-0.9990422	1.2961511e-10	0	-0.3200014	0	NaN	NaN	NaN	NaN	NaN	NaN	0	1e-07
0	-0.20147009	-0.3828504	1.2801247e-11	-0.9792404	-0.1866895	6.864908e-11	0.07418069	-0.23097803	4.041644e-11	-0.00036204705	-0.9990295	-8.207318e-11	0	-0.30999878	0	NaN	NaN	NaN	NaN	NaN	NaN	0	1e-07
0	-0.20170109	-0.37825048	-2.4688586e-11	-0.9804937	-0.1805693	-5.6205308e-11	0.074339636	-0.22330643	-9.325995e-11	-0.00036008243	-0.9990165	1.10136913e-10	0	-0.3000016	0	NaN	NaN	NaN	NaN	NaN	NaN	0	1e-07
0	-0.20192388	-0.37366256	7.461027e-12	-0.9817016	-0.1744593	-3.4538938e-11	0.07449238	-0.21565875	1.8353723e-11	-0.00035810564	-0.9990033	3.320749e-11	0	-0.28999975	0	NaN	NaN	NaN	NaN	NaN	NaN	0	1e-07
0	-0.20213854	-0.36908644	-4.1243457e-11	-0.9828647	-0.16835915	-4.624213e-11	0.07463902	-0.20803414	-1.1502946e-10	-0.00035611613	-0.9989897	6.925161e-11	0	-0.27999914	0	NaN	NaN	NaN	NaN	NaN	NaN	0	1e-07
0	-0.20234512	-0.3645216	-5.7282117e-11	-0.98398316	-0.16226858	-1.45629e-10	0.07477969	-0.20043167	-5.859438e-11	-0.0003541132	-0.99897575	5.0681135e-12	0	-0.26999894	0	NaN	NaN	NaN	NaN	NaN	NaN	0	1e-07
0	-0.20254363	-0.35996753	-3.70874e-11	-0.98505735	-0.15618728	-3.5638825e-11	0.07491444	-0.19285034	-6.725585e-11	-0.00035209532	-0.99896157	-4.3116786e-12	0	-0.26000047	0	NaN	NaN	NaN	NaN	NaN	NaN	0	1e-07
0	-0.20273416	-0.35542384	-1.9611326e-11	-0.9860877	-0.15011504	-3.708982e-11	0.075043395	-0.18528931	4.4795515e-11	-0.00035006183	-0.99894696	-1.19668e-10	0	-0.25	0	NaN	NaN	NaN	NaN	NaN	NaN	0	1e-07
0	-0.20291671	-0.35089004	-8.5225674e-11	-0.9870746	-0.14405148	-1.6333208e-10	0.075166635	-0.17774764	-7.233419e-11	-0.000348013	-0.99893206	-6.913815e-11	0	-0.23999932	0	NaN	NaN	NaN	NaN	NaN	NaN	0	1e-07
0	-0.20309135	-0.34636578	1.6316407e-11	-0.9880184	-0.13799633	-7.535964e-11	0.07528425	-0.17022443	4.163707e-11	-0.00034594536	-0.99891675	6.99324e-11	0	-0.23000132	0	NaN	NaN	NaN	NaN	NaN	NaN	0	1e-07
0	-0.20325822	-0.34185052	8.728776e-12	-0.9889194	-0.13194934	-5.2457736e-11	0.07539628	-0.1627188	-2.3254166e-11	-0.0003438611	-0.99890095	1.2571948e-10	0	-0.22000077	0	NaN	NaN	NaN	NaN	NaN	NaN	0	1e-07
0	-0.2034172	-0.33734396	3.6084677e-11	-0.989778	-0.12591015	-3.584212e-11	0.07550283	-0.15522988	1.8484644e-10	-0.00034175688	-0.99888504	-1.2814007e-10	0	-0.20999922	0	NaN	NaN	NaN	NaN	NaN	NaN	0	1e-07
0	-0.20356844	-0.33284545	6.376187e-11	-0.9905943	-0.119878456	5.434851e-11	0.07560397	-0.1477568	7.840217e-11	-0.00033963314	-0.9988685	7.670249e-11	0	-0.1999992	0	NaN	NaN	NaN	NaN	NaN	NaN	0	1e-07
0	-0.20371197	-0.32835475	2.4016865e-11	-0.99136895	-0.113853976	-3.1732694e-10	0.07569975	-0.14029871	1.3324185e-10	-0.00033748767	-0.99885154	1.821495e-10	0	-0.19000043	0	NaN	NaN	NaN	NaN	NaN	NaN	0	1e-07
0	-0.20384786	-0.32387137	-1.638943e-11	-0.9921018	-0.10783638	-1.4324095e-10	0.07579021	-0.1328548	3.4643066e-11	-0.00033532112	-0.9988344	1.3540184e-11	0	-0.18000028	0	NaN	NaN	NaN	NaN	NaN	NaN	0	1e-07
0	-0.20397611	-0.31939492	-3.2879692e-11	-0.9927936	-0.10182532	-9.347529e-11	0.07587544	-0.12542419	1.5133094e-11	-0.00033313132	-0.99881655	-6.947854e-11	0	-0.16999887	0	NaN	NaN	NaN	NaN	NaN	NaN	0	1e-07
0	-0.2040968	-0.31492493	-3.5673412e-11	-0.99344444	-0.09582047	-4.0463518e-11	0.075955465	-0.118006095	2.469874e-11	-0.00033091864	-0.99879825	-1.4841252e-10	0	-0.1600007	0	NaN	NaN	NaN	NaN	NaN	NaN	0	1e-07
0	-0.20420997	-0.31046107	-4.4637263e-11	-0.9940545	-0.08982151	-5.8561864e-11	0.076030344	-0.11059979	-9.7675056e-11	-0.00032868085	-0.9987795	3.8124316e-11	0	-0.1500008	0	NaN	NaN	NaN	NaN	NaN	NaN	0	1e-07
0	-0.20431565	-0.30600286	-2.9182504e-11	-0.99462426	-0.0838281	-7.328933e-11	0.07610012	-0.103204444	-1.2387691e-11	-0.00032641867	-0.99876016	-2.7647693e-11	0	-0.13999957	0	NaN	NaN	NaN	NaN	NaN	NaN	0	1e-07
0	-0.20441385	-0.30154997	3.0702718e-11	-0.9951536	-0.07783987	4.1782103e-12	0.07616481	-0.095819294	-4.008852e-11	-0.00032412974	-0.99874026	1.8910871e-10	0	-0.13000023	0	NaN	NaN	NaN	NaN	NaN	NaN	0	1e-07
0	-0.20450468	-0.29710197	2.7920828e-12	-0.9956429	-0.07185647	-2.0059439e-10	0.07622449	-0.088443585	7.168168e-11	-0.0003218147	-0.9987199	8.547714e-11	0	-0.11999966	0	NaN	NaN	NaN	NaN	NaN	NaN	0	1e-07
0	-0.20458812	-0.29265845	3.353342e-11	-0.9960926	-0.065877564	1.10515534e-10	0.07627916	-0.081076585	6.586436e-11	-0.0003194713	-0.99869895	-8.052249e-11	0	-0.11000039	0	NaN	NaN	NaN	NaN	NaN	NaN	0	1e-07
0	-0.20466422	-0.288219	1.2873739e-11	-0.99650276	-0.059902787	-1.00640635e-10	0.076328866	-0.073717505	1.0046014e-10	-0.00031709974	-0.9986774	-1.8532653e-11	0	-0.0999996	0	NaN	NaN	NaN	NaN	NaN	NaN	0	1e-07
0	-0.20473303	-0.28378323	1.9366191e-11	-0.99687356	-0.053931758	-5.3700874e-11	0.076373644	-0.066365615	-1.6346218e-11	-0.00031469908	-0.99865514	1.5888914e-10	0	-0.09000014	0	NaN	NaN	NaN	NaN	NaN	NaN	0	1e-07
0	-0.20479454	-0.27935076	-1.686899e-11	-0.997205	-0.047964133	-1.9429772e-11	0.07641349	-0.059020158	2.2480023e-11	-0.0003122687	-0.9986323	-8.804901e-11	0	-0.08000035	0	NaN	NaN	NaN	NaN	NaN	NaN	0	1e-07
0	-0.2048488	-0.27492118	7.528453e-12	-0.99749726	-0.041999526	-1.0416669e-10	0.07644845	-0.051680446	1.9402788e-11	-0.00030980707	-0.9986088	9.924425e-11	0	-0.069999784	0	NaN	NaN	NaN	NaN	NaN	NaN	0	1e-07
0	-0.20489585	-0.2704941	-2.9914526e-12	-0.9977508	-0.03603758	-1.6463523e-11	0.07647853	-0.044345707	9.498059e-12	-0.000307314	-0.9985845	-1.22542445e-11	0	-0.05999983	0	NaN	NaN	NaN	NaN	NaN	NaN	0	1e-07
0	-0.20493571	-0.26606908	-5.564534e-11	-0.9979654	-0.030077923	-6.835443e-11	0.07650376	-0.037015248	-5.0249405e-11	-0.0003047887	-0.9985593	-7.7194175e-11	0	-0.0499998	0	NaN	NaN	NaN	NaN	NaN	NaN	0	1e-07
0	-0.20496836	-0.26164585	-4.348891e-12	-0.9981413	-0.024120174	-6.814767e-11	0.07652413	-0.029688355	5.450282e-11	-0.00030222992	-0.9985334	-4.3343718e-11	0	-0.040000174	0	NaN	NaN	NaN	NaN	NaN	NaN	0	1e-07
0	-0.20499381	-0.25722393	-9.0813926e-11	-0.9982785	-0.018163957	-1.1887787e-10	0.076539665	-0.022364335	2.5696016e-11	-0.00029963854	-0.9985069	-2.9992642e-10	0	-0.029999916	0	NaN	NaN	NaN	NaN	NaN	NaN	0	1e-07
0	-0.20501214	-0.25280294	-8.387231e-12	-0.99837714	-0.012208906	-3.241599e-11	0.076550364	-0.015042472	5.007956e-11	-0.00029701274	-0.99847925	-8.710347e-11	0	-0.020000087	0	NaN	NaN	NaN	NaN	NaN	NaN	0	1e-07
0	-0.20502333	-0.24838252	-8.2102025e-12	-0.99843717	-0.006254641	-1.2790093e-10	0.07655624	-0.0077220635	-4.786866e-12	-0.000294352	-0.9984507	9.844999e-11	0	-0.010000044	0	NaN	NaN	NaN	NaN	NaN	NaN	0	1e-07
0	-0.20502731	-0.24396226	5.392191e-11	-0.99845874	-0.00030077982	8.09034e-11	0.07655729	-0.00040240443	-5.645563e-11	-0.0002916561	-0.9984211	2.3733143e-10	0	0	0	NaN	NaN	NaN	NaN	NaN	NaN	0	1e-07
0	-0.20656852	-0.24395671	-2.606294e-11	-0.9984872	-0.00029405238	-6.3684356e-11	0.0763964	-0.00040662836	-3.8691524e-12	-0.0063070245	-0.99839795	-3.8502534e-11	-0.010000044	0	0	NaN	NaN	NaN	NaN	NaN	NaN	0	1e-07
0	-0.20811018	-0.2439424	-4.19355e-11	-0.9985147	-0.00028742294	1.2674262e-10	0.076234035	-0.00041091346	-7.7801966e-11	-0.012322796	-0.99833834	-1.6391943e-10	-0.020000087	0	0	NaN	NaN	NaN	NaN	NaN	NaN	0	1e-07
0	-0.20965266	-0.24391784	6.288268e-11	-0.99854136	-0.00028088872	5.3753727e-11	0.07606957	-0.00041523992	1.290505e-11	-0.01833937	-0.9982369	1.8377584e-10	-0.029999916	0	0	NaN	NaN	NaN	NaN	NaN	NaN	0	1e-07
0	-0.21119644	-0.24388379	1.8807468e-11	-0.99856716	-0.00027444534	-1.724291e-11	0.0759023	-0.00041959895	1.5146382e-11	-0.024357134	-0.9980963	6.830607e-11	-0.040000174	0	0	NaN	NaN	NaN	NaN	NaN	NaN	0	1e-07
0	-0.21274184	-0.24384016	-6.6361196e-12	-0.99859226	-0.00026808988	-9.86904e-11	0.075731464	-0.000423985	-2.6155148e-12	-0.030376486	-0.9979164	7.2920316e-11	-0.0499998	0	0	NaN	NaN	NaN	NaN	NaN	NaN	0	1e-07
0	-0.21428937	-0.24378687	7.029428e-12	-0.9986164	-0.00026181998	-9.9477364e-11	0.07555624	-0.00042838888	7.0651436e-11	-0.03639782	-0.99769676	6.5053397e-12	-0.05999983	0	0	NaN	NaN	NaN	NaN	NaN	NaN	0	1e-07
0	-0.21583946	-0.24372393	-2.1952535e-12	-0.99864	-0.00025563303	-9.264723e-11	0.07537572	-0.0004328013	4.562551e-11	-0.04242152	-0.9974375	4.1603916e-12	-0.069999784	0	0	NaN	NaN	NaN	NaN	NaN	NaN	0	1e-07
0	-0.21739265	-0.24365129	-7.678944e-12	-0.99866277	-0.00024952536	-4.6068063e-11	0.07518889	-0.00043721095	-2.9058414e-11	-0.048447978	-0.9971384	6.206548e-11	-0.08000035	0	0	NaN	NaN	NaN	NaN	NaN	NaN	0	1e-07
0	-0.21894953	-0.2435689	-3.4771006e-13	-0.9986848	-0.00024349571	5.5142963e-11	0.07499453	-0.00044160304	-4.5890652e-11	-0.054477576	-0.99679935	2.2239184e-11	-0.09000014	0	0	NaN	NaN	NaN	NaN	NaN	NaN	0	1e-07
0	-0.2205108	-0.24347667	-1.8910528e-11	-0.9987064	-0.00023754104	-5.561701e-11	0.074791215	-0.0004459585	1.1339727e-10	-0.060510695	-0.99641997	-2.141467e-10	-0.0999996	0	0	NaN	NaN	NaN	NaN	NaN	NaN	0	1e-07
0	-0.22207728	-0.24337457	-2.8003544e-11	-0.9987272	-0.00023166076	1.06287834e-11	0.07457726	-0.00045025104	-5.6938863e-11	-0.06654772	-0.99600023	-2.931185e-11	-0.11000039	0	0	NaN	NaN	NaN	NaN	NaN	NaN	0	1e-07
0	-0.22364989	-0.24326257	-8.692742e-11	-0.99874765	-0.00022585128	2.7792331e-11	0.07435047	-0.00045443955	-6.441158e-12	-0.07258903	-0.99554026	-3.7222267e-10	-0.11999966	0	0	NaN	NaN	NaN	NaN	NaN	NaN	0	1e-07
0	-0.2252299	-0.24314061	9.22764e-12	-0.99876726	-0.0002201126	-5.6838152e-11	0.07410805	-0.00045847127	2.138259e-11	-0.07863499	-0.99503917	5.6978453e-11	-0.13000023	0	0	NaN	NaN	NaN	NaN	NaN	NaN	0	1e-07
0	-0.226819	-0.24300858	1.5338716e-11	-0.9987866	-0.00021444299	-1.1611366e-10	0.073846236	-0.00046225713	9.415958e-11	-0.08468598	-0.9944974	1.7161616e-11	-0.13999957	0	0	NaN	NaN	NaN	NaN	NaN	NaN	0	1e-07
0	-0.2284195	-0.2428663	-4.981597e-11	-0.9988053	-0.00020884203	-1.0170396e-10	0.07355962	-0.00046565794	5.4235158e-11	-0.090742335	-0.9939144	-1.9660687e-10	-0.1500008	0	0	NaN	NaN	NaN	NaN	NaN	NaN	0	1e-07
0	-0.23003474	-0.24271369	-8.5661567e-13	-0.9988235	-0.0002033085	-3.1668904e-11	0.073240064	-0.00046844414	2.7560434e-12	-0.09680442	-0.99328995	2.2570125e-11	-0.1600007	0	0	NaN	NaN	NaN	NaN	NaN	NaN	0	1e-07
0	-0.23167048	-0.24255045	-4.7352205e-11	-0.9988412	-0.00019784407	-1.6929676e-10	0.07287393	-0.0004701213	2.2445283e-11	-0.102872565	-0.99262375	-6.752599e-11	-0.16999887	0	0	NaN	NaN	NaN	NaN	NaN	NaN	0	1e-07
0	-0.23333873	-0.24237585	-2.5813927e-11	-0.9988586	-0.00019245218	-5.335855e-11	0.07243221	-0.0004690004	-2.2157045e-11	-0.10894712	-0.9919155	-1.6755031e-11	-0.18000028	0	0	NaN	NaN	NaN	NaN	NaN	NaN	0	1e-07
0	-0.51701236	-0.24218659	2.128876e-09	-0.9988782	-0.00019345038	-1.10891005e-10	-0.6151489	-0.0004642794	5.209817e-09	-0.11519741	-0.99114716	7.0959495e-11	-0.19000043	0	0	NaN	NaN	NaN	NaN	NaN	NaN	0	1e-07
0	-0.51854825	-0.2419926	8.70585e-11	-0.9988945	-0.00018802973	4.7661056e-11	-0.61526346	-0.00046658202	1.5873074e-10	-0.12128055	-0.9903539	4.3593105e-11	-0.1999992	0	0	NaN	NaN	NaN	NaN	NaN	NaN	0	1e-07
0	-0.52008766	-0.24178815	-5.8655684e-11	-0.99891055	-0.00018266242	-3.03131e-11	-0.6153826	-0.00046885648	-8.207502e-11	-0.12737109	-0.9895178	-7.2920316e-11	-0.20999922	0	0	NaN	NaN	NaN	NaN	NaN	NaN	0	1e-07
0	-0.52163124	-0.24157318	-4.7794862e-11	-0.99892604	-0.00017734764	-2.6967799e-12	-0.61550736	-0.00047108895	-6.67789e-11	-0.13346942	-0.98863864	-8.0923164e-11	-0.22000077	0	0	NaN	NaN	NaN	NaN	NaN	NaN	0	1e-07
0	-0.5231796	-0.24134764	-5.61869e-12	-0.99894124	-0.00017208447	8.24175e-11	-0.6156393	-0.00047325203	-5.8811955e-11	-0.13957578	-0.987716	-4.0835664e-12	-0.23000132	0	0	NaN	NaN	NaN	NaN	NaN	NaN	0	1e-07
0	-0.5247338	-0.24111138	-1.1429612e-12	-0.99895597	-0.00016687262	1.5412102e-11	-0.6157807	-0.00047530053	-7.36056e-11	-0.14569052	-0.98674977	1.0409962e-10	-0.23999932	0	0	NaN	NaN	NaN	NaN	NaN	NaN	0	1e-07
0	-0.5262952	-0.24086423	-4.987042e-11	-0.9989705	-0.00016171098	-5.973479e-11	-0.6159346	-0.00047713556	-2.8641615e-11	-0.15181391	-0.9857393	-9.8218336e-11	-0.25	0	0	NaN	NaN	NaN	NaN	NaN	NaN	0	1e-07
0	-0.5278664	-0.24060605	-4.8093717e-11	-0.9989847	-0.00015660137	-2.4834802e-12	-0.61610734	-0.0004785485	-6.836362e-11	-0.15794629	-0.98468435	-7.969041e-11	-0.26000047	0	0	NaN	NaN	NaN	NaN	NaN	NaN	0	1e-07
0	-0.52945215	-0.24033663	-5.710308e-11	-0.9989984	-0.00015154603	-6.251349e-12	-0.6163103	-0.00047905507	-1.6196885e-10	-0.1640879	-0.9835847	4.4403613e-11	-0.26999894	0	0	NaN	NaN	NaN	NaN	NaN	NaN	0	1e-07
0	-0.5310642	-0.24005516	-1.0132193e-10	-0.999012	-0.0001465526	-1.0154959e-10	-0.61657184	-0.0004770218	-3.7707126e-11	-0.17023903	-0.9824398	-2.5319882e-10	-0.27999914	0	0	NaN	NaN	NaN	NaN	NaN	NaN	0	1e-07
0	-0.6894137	-0.23974478	-1.8831751e-10	-0.99902636	-0.00015474051	-1.6315707e-10	-0.99877214	-0.00042624422	-1.3105604e-10	-0.1764382	-0.98124576	-3.9291354e-10	-0.28999975	0	0	NaN	NaN	NaN	NaN	NaN	NaN	0	1e-07
0	-0.69092953	-0.2394424	-2.2343306e-11	-0.9990393	-0.00014967819	-6.207789e-11	-0.9987896	-0.00042753507	-4.5214513e-11	-0.18260635	-0.9800099	4.4676932e-11	-0.3000016	0	0	NaN	NaN	NaN	NaN	NaN	NaN	0	1e-07
0	-0.69244784	-0.23912874	2.3700921e-11	-0.9990518	-0.00014465513	-4.3408742e-11	-0.9988066	-0.00042881272	-3.6951286e-11	-0.18878497	-0.97872764	2.0130149e-10	-0.30999878	0	0	NaN	NaN	NaN	NaN	NaN	NaN	0	1e-07
0	-0.6939684	-0.23880367	5.6358314e-11	-0.99906415	-0.00013966979	3.9693953e-11	-0.9988231	-0.00043007653	5.4764436e-11	-0.19497433	-0.9773987	1.0031981e-10	-0.3200014	0	0	NaN	NaN	NaN	NaN	NaN	NaN	0	1e-07
0	-0.69549155	-0.23846705	4.4692625e-11	-0.99907625	-0.00013472183	-2.571816e-12	-0.9988392	-0.00043132756	9.5707324e-11	-0.20117474	-0.9760226	2.4696712e-11	-0.33000147	0	0	NaN	NaN	NaN	NaN	NaN	NaN	0	1e-07
0	-0.6970172	-0.23811887	6.4952425e-11	-0.99908805	-0.00012980984	1.0859339e-11	-0.99885505	-0.00043256558	1.1007909e-10	-0.20738648	-0.9745988	7.0507086e-11	-0.33999774	0	0	NaN	NaN	NaN	NaN	NaN	NaN	0	1e-07
0	-0.6985454	-0.23775893	-2.7115771e-11	-0.9990995	-0.00012493232	1.2477361e-10	-0.99887043	-0.0004337905	-6.00985e-11	-0.21360992	-0.97312695	-1.3105987e-10	-0.35000098	0	0	NaN	NaN	NaN	NaN	NaN	NaN	0	1e-07
0	-0.7000764	-0.23738708	1.0051381e-11	-0.9991109	-0.00012008914	-5.4683424e-11	-0.9988856	-0.00043500253	-7.179154e-11	-0.21984541	-0.9716064	2.1488542e-10	-0.36000055	0	0	NaN	NaN	NaN	NaN	NaN	NaN	0	1e-07
0	-0.70161027	-0.23700325	-2.1676612e-10	-0.99912196	-0.00011527882	-1.2026843e-10	-0.9989003	-0.00043620158	-1.6128511e-10	-0.22609323	-0.9700368	-5.0023186e-10	-0.3699992	0	0	NaN	NaN	NaN	NaN	NaN	NaN	0	1e-07
0	-0.703147	-0.23660734	-1.1926851e-11	-0.9991327	-0.00011050033	-4.812338e-11	-0.9989147	-0.00043738759	4.6582186e-11	-0.23235378	-0.9684174	-8.049176e-11	-0.38000086	0	0	NaN	NaN	NaN	NaN	NaN	NaN	0	1e-07
0	-0.7046867	-0.23619911	2.0416011e-11	-0.9991434	-0.00010575325	-7.024505e-11	-0.9989289	-0.00043856163	-1.5962814e-11	-0.23862737	-0.9667479	1.7858953e-10	-0.38999942	0	0	NaN	NaN	NaN	NaN	NaN	NaN	0	1e-07
0	-0.70622975	-0.23577848	2.6750368e-11	-0.9991538	-0.000101036094	-8.829073e-11	-0.99894255	-0.0004397235	7.3931354e-11	-0.24491447	-0.9650273	7.092995e-11	-0.3999984	0	0	NaN	NaN	NaN	NaN	NaN	NaN	0	1e-07
0	-0.7077758	-0.23534529	-1.169921e-10	-0.9991639	-9.63481e-05	4.7996277e-11	-0.99895614	-0.0004408731	-1.4719607e-11	-0.2512154	-0.96325535	-5.010601e-10	-0.4100025	0	0	NaN	NaN	NaN	NaN	NaN	NaN	0	1e-07
0	-0.70932513	-0.23489933	1.8015199e-11	-0.99917394	-9.1689086e-05	-1.1216764e-10	-0.99896926	-0.00044201018	-4.4672634e-11	-0.2575305	-0.96143115	2.5767066e-10	-0.41999844	0	0	NaN	NaN	NaN	NaN	NaN	NaN	0	1e-07
0	-0.71087784	-0.23444052	3.858593e-11	-0.9991838	-8.705714e-05	-1.29331415e-11	-0.9989823	-0.00044313594	-1.890752e-11	-0.2638604	-0.9595542	2.0239212e-10	-0.42999703	0	0	NaN	NaN	NaN	NaN	NaN	NaN	0	1e-07
0	-0.7124343	-0.23396857	-1.9027657e-10	-0.9991934	-8.245148e-05	-8.592169e-11	-0.99899477	-0.0004442495	-6.1613215e-11	-0.27020532	-0.95762354	-5.9257127e-10	-0.44000155	0	0	NaN	NaN	NaN	NaN	NaN	NaN	0	1e-07