# t (s)	mx ()	my ()	mz ()	m.region1x ()	m.region1y ()	m.region1z ()	B_extx (T)	B_exty (T)	B_extz (T)	step_x (No unit)	step_y (No unit)	distance_above (No unit)	B_eff_x.region5 (T)	B_eff_x.region6 (T)	B_eff_x.region7 (T)	B_eff_x.region8 (T)	B_eff_x.region9 (T)	B_eff_x.region10 (T)	B_eff_x.region11 (T)	B_eff_x.region12 (T)	B_eff_x.region13 (T)	B_eff_x.region14 (T)	B_eff_x.region15 (T)	B_eff_x.region16 (T)	B_eff_x.region17 (T)	B_eff_x.region18 (T)	B_eff_x.region19 (T)	B_eff_x.region20 (T)	B_eff_x.region21 (T)	B_eff_x.region22 (T)	B_eff_x.region23 (T)	B_eff_x.region24 (T)	B_eff_x.region25 (T)	B_eff_x.region26 (T)	B_eff_x.region27 (T)	B_eff_x.region28 (T)	B_eff_x.region29 (T)	B_eff_x.region30 (T)	B_eff_x.region31 (T)	B_eff_x.region32 (T)	B_eff_x.region33 (T)	B_eff_x.region34 (T)	B_eff_x.region35 (T)	B_eff_x.region36 (T)	B_eff_x.region37 (T)	B_eff_x.region38 (T)	B_eff_x.region39 (T)	B_eff_x.region40 (T)	B_eff_x.region41 (T)	B_eff_x.region42 (T)	B_eff_x.region43 (T)	B_eff_x.region44 (T)	B_eff_x.region45 (T)	B_eff_x.region46 (T)	B_eff_x.region47 (T)	B_eff_x.region48 (T)	B_eff_x.region49 (T)	B_eff_x.region50 (T)	B_eff_x.region51 (T)	B_eff_x.region52 (T)	B_eff_x.region53 (T)	B_eff_x.region54 (T)	B_eff_x.region55 (T)	B_eff_x.region56 (T)	B_eff_x.region57 (T)	B_eff_x.region58 (T)	B_eff_x.region59 (T)	B_eff_x.region60 (T)	B_eff_x.region61 (T)	B_eff_x.region62 (T)	B_eff_x.region63 (T)	B_eff_x.region64 (T)	B_eff_x.region65 (T)	B_eff_x.region66 (T)	B_eff_x.region67 (T)	B_eff_x.region68 (T)	B_eff_x.region69 (T)	B_eff_x.region70 (T)	B_eff_x.region71 (T)	B_eff_x.region72 (T)	B_eff_x.region73 (T)	B_eff_x.region74 (T)	B_eff_x.region75 (T)	B_eff_x.region76 (T)	B_eff_x.region77 (T)	B_eff_x.region78 (T)	B_eff_x.region79 (T)	B_eff_x.region80 (T)	B_eff_x.region81 (T)	B_eff_x.region82 (T)	B_eff_x.region83 (T)	B_eff_x.region84 (T)	B_eff_x.region85 (T)	B_eff_x.region86 (T)	B_eff_x.region87 (T)	B_eff_x.region88 (T)	B_eff_x.region89 (T)	B_eff_x.region90 (T)	B_eff_x.region91 (T)	B_eff_x.region92 (T)	B_eff_x.region93 (T)	B_eff_x.region94 (T)	B_eff_x.region95 (T)	B_eff_x.region96 (T)	B_eff_x.region97 (T)	B_eff_x.region98 (T)	B_eff_x.region99 (T)	B_eff_x.region100 (T)	B_eff_x.region101 (T)	B_eff_x.region102 (T)	B_eff_x.region103 (T)	B_eff_x.region104 (T)	B_eff_x.region105 (T)	B_eff_x.region106 (T)	B_eff_x.region107 (T)	B_eff_x.region108 (T)	B_eff_x.region109 (T)	B_eff_x.region110 (T)	B_eff_x.region111 (T)	B_eff_x.region112 (T)	B_eff_x.region113 (T)	B_eff_x.region114 (T)	B_eff_x.region115 (T)	B_eff_x.region116 (T)	B_eff_x.region117 (T)	B_eff_x.region118 (T)	B_eff_x.region119 (T)	B_eff_x.region120 (T)	B_eff_x.region121 (T)	B_eff_x.region122 (T)	B_eff_x.region123 (T)	B_eff_x.region124 (T)	B_eff_x.region125 (T)	B_eff_x.region126 (T)	B_eff_x.region127 (T)	B_eff_x.region128 (T)	B_eff_x.region129 (T)	B_eff_x.region130 (T)	B_eff_x.region131 (T)	B_eff_x.region132 (T)	B_eff_x.region133 (T)	B_eff_x.region134 (T)	B_eff_x.region135 (T)	B_eff_x.region136 (T)	B_eff_x.region137 (T)	B_eff_x.region138 (T)	B_eff_x.region139 (T)	B_eff_x.region140 (T)	B_eff_x.region141 (T)	B_eff_x.region142 (T)	B_eff_x.region143 (T)	B_eff_x.region144 (T)	B_eff_x.region145 (T)	B_eff_x.region146 (T)	B_eff_x.region147 (T)	B_eff_x.region148 (T)	B_eff_x.region149 (T)	B_eff_x.region150 (T)	B_eff_x.region151 (T)	B_eff_x.region152 (T)	B_eff_x.region153 (T)	B_eff_x.region154 (T)	B_eff_x.region155 (T)	B_eff_x.region156 (T)	B_eff_x.region157 (T)	B_eff_x.region158 (T)	B_eff_x.region159 (T)	B_eff_x.region160 (T)	B_eff_x.region161 (T)	B_eff_x.region162 (T)	B_eff_x.region163 (T)	B_eff_x.region164 (T)	B_eff_x.region165 (T)	B_eff_x.region166 (T)	B_eff_x.region167 (T)	B_eff_x.region168 (T)	B_eff_x.region169 (T)	B_eff_x.region170 (T)	B_eff_x.region171 (T)	B_eff_x.region172 (T)	B_eff_x.region173 (T)	B_eff_x.region174 (T)	B_eff_x.region175 (T)	B_eff_x.region176 (T)	B_eff_x.region177 (T)	B_eff_x.region178 (T)	B_eff_x.region179 (T)	B_eff_x.region180 (T)	B_eff_x.region181 (T)	B_eff_x.region182 (T)	B_eff_x.region183 (T)	B_eff_x.region184 (T)	B_eff_x.region185 (T)	B_eff_x.region186 (T)	B_eff_x.region187 (T)	B_eff_x.region188 (T)	B_eff_x.region189 (T)	B_eff_x.region190 (T)	B_eff_x.region191 (T)	B_eff_x.region192 (T)	B_eff_x.region193 (T)	B_eff_x.region194 (T)	B_eff_x.region195 (T)	B_eff_x.region196 (T)	B_eff_x.region197 (T)	B_eff_x.region198 (T)	B_eff_x.region199 (T)	B_eff_x.region200 (T)	B_eff_x.region201 (T)	B_eff_x.region202 (T)	B_eff_x.region203 (T)	B_eff_x.region204 (T)	B_eff_x.region205 (T)	B_eff_x.region206 (T)	B_eff_x.region207 (T)	B_eff_x.region208 (T)	B_eff_x.region209 (T)	B_eff_x.region210 (T)	B_eff_x.region211 (T)	B_eff_x.region212 (T)	B_eff_x.region213 (T)	B_eff_x.region214 (T)	B_eff_x.region215 (T)	B_eff_x.region216 (T)	B_eff_x.region217 (T)	B_eff_x.region218 (T)	B_eff_x.region219 (T)	B_eff_x.region220 (T)	B_eff_x.region221 (T)	B_eff_x.region222 (T)	B_eff_x.region223 (T)	B_eff_x.region224 (T)	B_eff_x.region225 (T)	B_eff_x.region226 (T)	B_eff_x.region227 (T)	B_eff_x.region228 (T)	B_eff_x.region229 (T)	B_eff_x.region230 (T)	B_eff_y.region5 (T)	B_eff_y.region6 (T)	B_eff_y.region7 (T)	B_eff_y.region8 (T)	B_eff_y.region9 (T)	B_eff_y.region10 (T)	B_eff_y.region11 (T)	B_eff_y.region12 (T)	B_eff_y.region13 (T)	B_eff_y.region14 (T)	B_eff_y.region15 (T)	B_eff_y.region16 (T)	B_eff_y.region17 (T)	B_eff_y.region18 (T)	B_eff_y.region19 (T)	B_eff_y.region20 (T)	B_eff_y.region21 (T)	B_eff_y.region22 (T)	B_eff_y.region23 (T)	B_eff_y.region24 (T)	B_eff_y.region25 (T)	B_eff_y.region26 (T)	B_eff_y.region27 (T)	B_eff_y.region28 (T)	B_eff_y.region29 (T)	B_eff_y.region30 (T)	B_eff_y.region31 (T)	B_eff_y.region32 (T)	B_eff_y.region33 (T)	B_eff_y.region34 (T)	B_eff_y.region35 (T)	B_eff_y.region36 (T)	B_eff_y.region37 (T)	B_eff_y.region38 (T)	B_eff_y.region39 (T)	B_eff_y.region40 (T)	B_eff_y.region41 (T)	B_eff_y.region42 (T)	B_eff_y.region43 (T)	B_eff_y.region44 (T)	B_eff_y.region45 (T)	B_eff_y.region46 (T)	B_eff_y.region47 (T)	B_eff_y.region48 (T)	B_eff_y.region49 (T)	B_eff_y.region50 (T)	B_eff_y.region51 (T)	B_eff_y.region52 (T)	B_eff_y.region53 (T)	B_eff_y.region54 (T)	B_eff_y.region55 (T)	B_eff_y.region56 (T)	B_eff_y.region57 (T)	B_eff_y.region58 (T)	B_eff_y.region59 (T)	B_eff_y.region60 (T)	B_eff_y.region61 (T)	B_eff_y.region62 (T)	B_eff_y.region63 (T)	B_eff_y.region64 (T)	B_eff_y.region65 (T)	B_eff_y.region66 (T)	B_eff_y.region67 (T)	B_eff_y.region68 (T)	B_eff_y.region69 (T)	B_eff_y.region70 (T)	B_eff_y.region71 (T)	B_eff_y.region72 (T)	B_eff_y.region73 (T)	B_eff_y.region74 (T)	B_eff_y.region75 (T)	B_eff_y.region76 (T)	B_eff_y.region77 (T)	B_eff_y.region78 (T)	B_eff_y.region79 (T)	B_eff_y.region80 (T)	B_eff_y.region81 (T)	B_eff_y.region82 (T)	B_eff_y.region83 (T)	B_eff_y.region84 (T)	B_eff_y.region85 (T)	B_eff_y.region86 (T)	B_eff_y.region87 (T)	B_eff_y.region88 (T)	B_eff_y.region89 (T)	B_eff_y.region90 (T)	B_eff_y.region91 (T)	B_eff_y.region92 (T)	B_eff_y.region93 (T)	B_eff_y.region94 (T)	B_eff_y.region95 (T)	B_eff_y.region96 (T)	B_eff_y.region97 (T)	B_eff_y.region98 (T)	B_eff_y.region99 (T)	B_eff_y.region100 (T)	B_eff_y.region101 (T)	B_eff_y.region102 (T)	B_eff_y.region103 (T)	B_eff_y.region104 (T)	B_eff_y.region105 (T)	B_eff_y.region106 (T)	B_eff_y.region107 (T)	B_eff_y.region108 (T)	B_eff_y.region109 (T)	B_eff_y.region110 (T)	B_eff_y.region111 (T)	B_eff_y.region112 (T)	B_eff_y.region113 (T)	B_eff_y.region114 (T)	B_eff_y.region115 (T)	B_eff_y.region116 (T)	B_eff_y.region117 (T)	B_eff_y.region118 (T)	B_eff_y.region119 (T)	B_eff_y.region120 (T)	B_eff_y.region121 (T)	B_eff_y.region122 (T)	B_eff_y.region123 (T)	B_eff_y.region124 (T)	B_eff_y.region125 (T)	B_eff_y.region126 (T)	B_eff_y.region127 (T)	B_eff_y.region128 (T)	B_eff_y.region129 (T)	B_eff_y.region130 (T)	B_eff_y.region131 (T)	B_eff_y.region132 (T)	B_eff_y.region133 (T)	B_eff_y.region134 (T)	B_eff_y.region135 (T)	B_eff_y.region136 (T)	B_eff_y.region137 (T)	B_eff_y.region138 (T)	B_eff_y.region139 (T)	B_eff_y.region140 (T)	B_eff_y.region141 (T)	B_eff_y.region142 (T)	B_eff_y.region143 (T)	B_eff_y.region144 (T)	B_eff_y.region145 (T)	B_eff_y.region146 (T)	B_eff_y.region147 (T)	B_eff_y.region148 (T)	B_eff_y.region149 (T)	B_eff_y.region150 (T)	B_eff_y.region151 (T)	B_eff_y.region152 (T)	B_eff_y.region153 (T)	B_eff_y.region154 (T)	B_eff_y.region155 (T)	B_eff_y.region156 (T)	B_eff_y.region157 (T)	B_eff_y.region158 (T)	B_eff_y.region159 (T)	B_eff_y.region160 (T)	B_eff_y.region161 (T)	B_eff_y.region162 (T)	B_eff_y.region163 (T)	B_eff_y.region164 (T)	B_eff_y.region165 (T)	B_eff_y.region166 (T)	B_eff_y.region167 (T)	B_eff_y.region168 (T)	B_eff_y.region169 (T)	B_eff_y.region170 (T)	B_eff_y.region171 (T)	B_eff_y.region172 (T)	B_eff_y.region173 (T)	B_eff_y.region174 (T)	B_eff_y.region175 (T)	B_eff_y.region176 (T)	B_eff_y.region177 (T)	B_eff_y.region178 (T)	B_eff_y.region179 (T)	B_eff_y.region180 (T)	B_eff_y.region181 (T)	B_eff_y.region182 (T)	B_eff_y.region183 (T)	B_eff_y.region184 (T)	B_eff_y.region185 (T)	B_eff_y.region186 (T)	B_eff_y.region187 (T)	B_eff_y.region188 (T)	B_eff_y.region189 (T)	B_eff_y.region190 (T)	B_eff_y.region191 (T)	B_eff_y.region192 (T)	B_eff_y.region193 (T)	B_eff_y.region194 (T)	B_eff_y.region195 (T)	B_eff_y.region196 (T)	B_eff_y.region197 (T)	B_eff_y.region198 (T)	B_eff_y.region199 (T)	B_eff_y.region200 (T)	B_eff_y.region201 (T)	B_eff_y.region202 (T)	B_eff_y.region203 (T)	B_eff_y.region204 (T)	B_eff_y.region205 (T)	B_eff_y.region206 (T)	B_eff_y.region207 (T)	B_eff_y.region208 (T)	B_eff_y.region209 (T)	B_eff_y.region210 (T)	B_eff_y.region211 (T)	B_eff_y.region212 (T)	B_eff_y.region213 (T)	B_eff_y.region214 (T)	B_eff_y.region215 (T)	B_eff_y.region216 (T)	B_eff_y.region217 (T)	B_eff_y.region218 (T)	B_eff_y.region219 (T)	B_eff_y.region220 (T)	B_eff_y.region221 (T)	B_eff_y.region222 (T)	B_eff_y.region223 (T)	B_eff_y.region224 (T)	B_eff_y.region225 (T)	B_eff_y.region226 (T)	B_eff_y.region227 (T)	B_eff_y.region228 (T)	B_eff_y.region229 (T)	B_eff_y.region230 (T)	B_eff_z.region5 (T)	B_eff_z.region6 (T)	B_eff_z.region7 (T)	B_eff_z.region8 (T)	B_eff_z.region9 (T)	B_eff_z.region10 (T)	B_eff_z.region11 (T)	B_eff_z.region12 (T)	B_eff_z.region13 (T)	B_eff_z.region14 (T)	B_eff_z.region15 (T)	B_eff_z.region16 (T)	B_eff_z.region17 (T)	B_eff_z.region18 (T)	B_eff_z.region19 (T)	B_eff_z.region20 (T)	B_eff_z.region21 (T)	B_eff_z.region22 (T)	B_eff_z.region23 (T)	B_eff_z.region24 (T)	B_eff_z.region25 (T)	B_eff_z.region26 (T)	B_eff_z.region27 (T)	B_eff_z.region28 (T)	B_eff_z.region29 (T)	B_eff_z.region30 (T)	B_eff_z.region31 (T)	B_eff_z.region32 (T)	B_eff_z.region33 (T)	B_eff_z.region34 (T)	B_eff_z.region35 (T)	B_eff_z.region36 (T)	B_eff_z.region37 (T)	B_eff_z.region38 (T)	B_eff_z.region39 (T)	B_eff_z.region40 (T)	B_eff_z.region41 (T)	B_eff_z.region42 (T)	B_eff_z.region43 (T)	B_eff_z.region44 (T)	B_eff_z.region45 (T)	B_eff_z.region46 (T)	B_eff_z.region47 (T)	B_eff_z.region48 (T)	B_eff_z.region49 (T)	B_eff_z.region50 (T)	B_eff_z.region51 (T)	B_eff_z.region52 (T)	B_eff_z.region53 (T)	B_eff_z.region54 (T)	B_eff_z.region55 (T)	B_eff_z.region56 (T)	B_eff_z.region57 (T)	B_eff_z.region58 (T)	B_eff_z.region59 (T)	B_eff_z.region60 (T)	B_eff_z.region61 (T)	B_eff_z.region62 (T)	B_eff_z.region63 (T)	B_eff_z.region64 (T)	B_eff_z.region65 (T)	B_eff_z.region66 (T)	B_eff_z.region67 (T)	B_eff_z.region68 (T)	B_eff_z.region69 (T)	B_eff_z.region70 (T)	B_eff_z.region71 (T)	B_eff_z.region72 (T)	B_eff_z.region73 (T)	B_eff_z.region74 (T)	B_eff_z.region75 (T)	B_eff_z.region76 (T)	B_eff_z.region77 (T)	B_eff_z.region78 (T)	B_eff_z.region79 (T)	B_eff_z.region80 (T)	B_eff_z.region81 (T)	B_eff_z.region82 (T)	B_eff_z.region83 (T)	B_eff_z.region84 (T)	B_eff_z.region85 (T)	B_eff_z.region86 (T)	B_eff_z.region87 (T)	B_eff_z.region88 (T)	B_eff_z.region89 (T)	B_eff_z.region90 (T)	B_eff_z.region91 (T)	B_eff_z.region92 (T)	B_eff_z.region93 (T)	B_eff_z.region94 (T)	B_eff_z.region95 (T)	B_eff_z.region96 (T)	B_eff_z.region97 (T)	B_eff_z.region98 (T)	B_eff_z.region99 (T)	B_eff_z.region100 (T)	B_eff_z.region101 (T)	B_eff_z.region102 (T)	B_eff_z.region103 (T)	B_eff_z.region104 (T)	B_eff_z.region105 (T)	B_eff_z.region106 (T)	B_eff_z.region107 (T)	B_eff_z.region108 (T)	B_eff_z.region109 (T)	B_eff_z.region110 (T)	B_eff_z.region111 (T)	B_eff_z.region112 (T)	B_eff_z.region113 (T)	B_eff_z.region114 (T)	B_eff_z.region115 (T)	B_eff_z.region116 (T)	B_eff_z.region117 (T)	B_eff_z.region118 (T)	B_eff_z.region119 (T)	B_eff_z.region120 (T)	B_eff_z.region121 (T)	B_eff_z.region122 (T)	B_eff_z.region123 (T)	B_eff_z.region124 (T)	B_eff_z.region125 (T)	B_eff_z.region126 (T)	B_eff_z.region127 (T)	B_eff_z.region128 (T)	B_eff_z.region129 (T)	B_eff_z.region130 (T)	B_eff_z.region131 (T)	B_eff_z.region132 (T)	B_eff_z.region133 (T)	B_eff_z.region134 (T)	B_eff_z.region135 (T)	B_eff_z.region136 (T)	B_eff_z.region137 (T)	B_eff_z.region138 (T)	B_eff_z.region139 (T)	B_eff_z.region140 (T)	B_eff_z.region141 (T)	B_eff_z.region142 (T)	B_eff_z.region143 (T)	B_eff_z.region144 (T)	B_eff_z.region145 (T)	B_eff_z.region146 (T)	B_eff_z.region147 (T)	B_eff_z.region148 (T)	B_eff_z.region149 (T)	B_eff_z.region150 (T)	B_eff_z.region151 (T)	B_eff_z.region152 (T)	B_eff_z.region153 (T)	B_eff_z.region154 (T)	B_eff_z.region155 (T)	B_eff_z.region156 (T)	B_eff_z.region157 (T)	B_eff_z.region158 (T)	B_eff_z.region159 (T)	B_eff_z.region160 (T)	B_eff_z.region161 (T)	B_eff_z.region162 (T)	B_eff_z.region163 (T)	B_eff_z.region164 (T)	B_eff_z.region165 (T)	B_eff_z.region166 (T)	B_eff_z.region167 (T)	B_eff_z.region168 (T)	B_eff_z.region169 (T)	B_eff_z.region170 (T)	B_eff_z.region171 (T)	B_eff_z.region172 (T)	B_eff_z.region173 (T)	B_eff_z.region174 (T)	B_eff_z.region175 (T)	B_eff_z.region176 (T)	B_eff_z.region177 (T)	B_eff_z.region178 (T)	B_eff_z.region179 (T)	B_eff_z.region180 (T)	B_eff_z.region181 (T)	B_eff_z.region182 (T)	B_eff_z.region183 (T)	B_eff_z.region184 (T)	B_eff_z.region185 (T)	B_eff_z.region186 (T)	B_eff_z.region187 (T)	B_eff_z.region188 (T)	B_eff_z.region189 (T)	B_eff_z.region190 (T)	B_eff_z.region191 (T)	B_eff_z.region192 (T)	B_eff_z.region193 (T)	B_eff_z.region194 (T)	B_eff_z.region195 (T)	B_eff_z.region196 (T)	B_eff_z.region197 (T)	B_eff_z.region198 (T)	B_eff_z.region199 (T)	B_eff_z.region200 (T)	B_eff_z.region201 (T)	B_eff_z.region202 (T)	B_eff_z.region203 (T)	B_eff_z.region204 (T)	B_eff_z.region205 (T)	B_eff_z.region206 (T)	B_eff_z.region207 (T)	B_eff_z.region208 (T)	B_eff_z.region209 (T)	B_eff_z.region210 (T)	B_eff_z.region211 (T)	B_eff_z.region212 (T)	B_eff_z.region213 (T)	B_eff_z.region214 (T)	B_eff_z.region215 (T)	B_eff_z.region216 (T)	B_eff_z.region217 (T)	B_eff_z.region218 (T)	B_eff_z.region219 (T)	B_eff_z.region220 (T)	B_eff_z.region221 (T)	B_eff_z.region222 (T)	B_eff_z.region223 (T)	B_eff_z.region224 (T)	B_eff_z.region225 (T)	B_eff_z.region226 (T)	B_eff_z.region227 (T)	B_eff_z.region228 (T)	B_eff_z.region229 (T)	B_eff_z.region230 (T)
0	0	1	0	0	1	0	0	0	0	0	0	-5e-08	NaN	NaN	-4.536149e-10	NaN	NaN	NaN	NaN	NaN	NaN	NaN	NaN	NaN	NaN	NaN	NaN	NaN	NaN	NaN	NaN	NaN	NaN	NaN	NaN	NaN	NaN	NaN	NaN	NaN	NaN	NaN	NaN	NaN	NaN	NaN	NaN	NaN	NaN	NaN	NaN	NaN	NaN	NaN	NaN	NaN	NaN	NaN	NaN	NaN	NaN	NaN	NaN	NaN	NaN	NaN	NaN	NaN	NaN	NaN	NaN	NaN	NaN	NaN	NaN	NaN	NaN	NaN	NaN	NaN	NaN	NaN	NaN	NaN	NaN	NaN	NaN	NaN	NaN	NaN	NaN	NaN	NaN	NaN	NaN	NaN	NaN	NaN	NaN	NaN	NaN	NaN	NaN	NaN	NaN	NaN	NaN	NaN	NaN	NaN	NaN	NaN	NaN	NaN	NaN	NaN	NaN	NaN	NaN	NaN	NaN	NaN	NaN	NaN	NaN	NaN	NaN	NaN	NaN	NaN	NaN	NaN	NaN	NaN	NaN	NaN	NaN	NaN	NaN	NaN	NaN	NaN	NaN	NaN	NaN	NaN	NaN	NaN	NaN	NaN	NaN	NaN	NaN	NaN	NaN	NaN	NaN	NaN	NaN	NaN	NaN	NaN	NaN	NaN	NaN	NaN	NaN	NaN	NaN	NaN	NaN	NaN	NaN	NaN	NaN	NaN	NaN	NaN	NaN	NaN	NaN	NaN	NaN	NaN	NaN	NaN	NaN	NaN	NaN	NaN	NaN	NaN	NaN	NaN	NaN	NaN	NaN	NaN	NaN	NaN	NaN	NaN	NaN	NaN	NaN	NaN	NaN	NaN	NaN	NaN	NaN	NaN	NaN	NaN	NaN	NaN	NaN	NaN	NaN	NaN	NaN	NaN	NaN	NaN	NaN	NaN	NaN	NaN	NaN	NaN	NaN	NaN	NaN	NaN	NaN	NaN	NaN	NaN	NaN	NaN	0.032049723	NaN	NaN	NaN	NaN	NaN	NaN	NaN	NaN	NaN	NaN	NaN	NaN	NaN	NaN	NaN	NaN	NaN	NaN	NaN	NaN	NaN	NaN	NaN	NaN	NaN	NaN	NaN	NaN	NaN	NaN	NaN	NaN	NaN	NaN	NaN	NaN	NaN	NaN	NaN	NaN	NaN	NaN	NaN	NaN	NaN	NaN	NaN	NaN	NaN	NaN	NaN	NaN	NaN	NaN	NaN	NaN	NaN	NaN	NaN	NaN	NaN	NaN	NaN	NaN	NaN	NaN	NaN	NaN	NaN	NaN	NaN	NaN	NaN	NaN	NaN	NaN	NaN	NaN	NaN	NaN	NaN	NaN	NaN	NaN	NaN	NaN	NaN	NaN	NaN	NaN	NaN	NaN	NaN	NaN	NaN	NaN	NaN	NaN	NaN	NaN	NaN	NaN	NaN	NaN	NaN	NaN	NaN	NaN	NaN	NaN	NaN	NaN	NaN	NaN	NaN	NaN	NaN	NaN	NaN	NaN	NaN	NaN	NaN	NaN	NaN	NaN	NaN	NaN	NaN	NaN	NaN	NaN	NaN	NaN	NaN	NaN	NaN	NaN	NaN	NaN	NaN	NaN	NaN	NaN	NaN	NaN	NaN	NaN	NaN	NaN	NaN	NaN	NaN	NaN	NaN	NaN	NaN	NaN	NaN	NaN	NaN	NaN	NaN	NaN	NaN	NaN	NaN	NaN	NaN	NaN	NaN	NaN	NaN	NaN	NaN	NaN	NaN	NaN	NaN	NaN	NaN	NaN	NaN	NaN	NaN	NaN	NaN	NaN	NaN	NaN	NaN	NaN	NaN	NaN	NaN	NaN	NaN	NaN	NaN	NaN	NaN	NaN	NaN	NaN	NaN	NaN	NaN	NaN	NaN	NaN	NaN	NaN	NaN	NaN	NaN	NaN	NaN	NaN	NaN	NaN	NaN	NaN	NaN	NaN	NaN	2.8391747e-10	NaN	NaN	NaN	NaN	NaN	NaN	NaN	NaN	NaN	NaN	NaN	NaN	NaN	NaN	NaN	NaN	NaN	NaN	NaN	NaN	NaN	NaN	NaN	NaN	NaN	NaN	NaN	NaN	NaN	NaN	NaN	NaN	NaN	NaN	NaN	NaN	NaN	NaN	NaN	NaN	NaN	NaN	NaN	NaN	NaN	NaN	NaN	NaN	NaN	NaN	NaN	NaN	NaN	NaN	NaN	NaN	NaN	NaN	NaN	NaN	NaN	NaN	NaN	NaN	NaN	NaN	NaN	NaN	NaN	NaN	NaN	NaN	NaN	NaN	NaN	NaN	NaN	NaN	NaN	NaN	NaN	NaN	NaN	NaN	NaN	NaN	NaN	NaN	NaN	NaN	NaN	NaN	NaN	NaN	NaN	NaN	NaN	NaN	NaN	NaN	NaN	NaN	NaN	NaN	NaN	NaN	NaN	NaN	NaN	NaN	NaN	NaN	NaN	NaN	NaN	NaN	NaN	NaN	NaN	NaN	NaN	NaN	NaN	NaN	NaN	NaN	NaN	NaN	NaN	NaN	NaN	NaN	NaN	NaN	NaN	NaN	NaN	NaN	NaN	NaN	NaN	NaN	NaN	NaN	NaN	NaN	NaN	NaN	NaN	NaN	NaN	NaN	NaN	NaN	NaN	NaN	NaN	NaN	NaN	NaN	NaN	NaN	NaN	NaN	NaN	NaN	NaN	NaN	NaN	NaN	NaN	NaN	NaN	NaN	NaN	NaN	NaN	NaN	NaN	NaN	NaN	NaN	NaN	NaN	NaN	NaN	NaN	NaN	NaN	NaN	NaN	NaN	NaN	NaN	NaN	NaN	NaN	NaN	NaN	NaN	NaN	NaN	NaN	NaN	NaN	NaN	NaN	NaN	NaN	NaN	NaN	NaN	NaN	NaN	NaN	NaN	NaN	NaN	NaN	NaN	NaN	NaN	NaN
