# t (s)	mx ()	my ()	mz ()	m.region21x ()	m.region21y ()	m.region21z ()	m.region22x ()	m.region22y ()	m.region22z ()	m.region23x ()	m.region23y ()	m.region23z ()	B_extx (T)	B_exty (T)	B_extz (T)	B_eff.region6x (T)	B_eff.region6y (T)	B_eff.region6z (T)	B_eff.region9x (T)	B_eff.region9y (T)	B_eff.region9z (T)	step_x (No unit)	step_y (No unit)	points_TOP_wire (No unit)
0	0	-0.27360004	0	-0.7071067	0.7071067	0	0.7071069	-0.7071069	0	-0.70710695	-0.70710695	0	0	0	0	-0.003132721	-0.028765513	0.0054766685	NaN	NaN	NaN	0	1e-07	145
0	0	-0.27360004	0	-0.7071067	0.7071067	0	0.707107	-0.7071069	0	-0.70710695	-0.70710695	0	0	0	0	-0.028522806	-0.018578555	0.0054198694	NaN	NaN	NaN	1.3448276e-08	1e-07	145
0	0	-0.27360004	0	-0.7071067	0.7071067	0	0.707107	-0.7071069	0	-0.70710695	-0.70710695	0	0	0	0	-0.051542606	-0.011987666	0.0052359235	NaN	NaN	NaN	2.6896553e-08	1e-07	145
0	0	-0.27360004	0	-0.7071067	0.7071067	0	0.7071069	-0.707107	0	-0.70710695	-0.70710695	0	0	0	0	-0.070940636	-0.008725836	0.004951135	NaN	NaN	NaN	4.0344826e-08	1e-07	145
0	0	-0.27360004	0	-0.7071067	0.7071067	0	0.707107	-0.7071069	0	-0.70710695	-0.7071069	0	0	0	0	-0.086392894	-0.007900708	0.0045968797	NaN	NaN	NaN	5.3793105e-08	1e-07	145
0	0	-0.27360004	0	-0.7071067	0.7071067	0	0.7071069	-0.7071069	0	-0.7071069	-0.7071069	0	0	0	0	-0.0981641	-0.008616005	0.004202857	NaN	NaN	NaN	6.724138e-08	1e-07	145
0	0	-0.27360004	0	-0.7071067	0.7071067	0	0.707107	-0.707107	0	-0.7071069	-0.70710695	0	0	0	0	-0.10676578	-0.010171165	0.0037933912	NaN	NaN	NaN	8.068965e-08	1e-07	145
0	0	-0.27360004	0	-0.7071067	0.7071067	0	0.707107	-0.7071069	0	-0.70710695	-0.7071069	0	0	0	0	-0.1127696	-0.012071387	0.0033863427	NaN	NaN	NaN	9.413793e-08	1e-07	145
0	0	-0.27360004	0	-0.7071067	0.7071067	0	0.707107	-0.7071069	0	-0.70710695	-0.70710695	0	0	0	0	-0.11672166	-0.013992424	0.0029936365	NaN	NaN	NaN	1.0758621e-07	1e-07	145
0	0	-0.27360004	0	-0.7071067	0.7071067	0	0.7071069	-0.7071069	0	-0.70710695	-0.707107	0	0	0	0	-0.11911044	-0.015739977	0.0026223816	NaN	NaN	NaN	1.2103449e-07	1e-07	145
0	0	-0.27360004	0	-0.7071067	0.7071067	0	0.7071069	-0.7071069	0	-0.70710695	-0.70710695	0	0	0	0	-0.12035742	-0.017215561	0.0022760623	NaN	NaN	NaN	1.3448276e-07	1e-07	145
0	0	-0.27360004	0	-0.7071067	0.7071067	0	0.7071069	-0.7071069	0	-0.707107	-0.70710695	0	0	0	0	-0.12081838	-0.018389478	0.0019555502	NaN	NaN	NaN	1.4793103e-07	1e-07	145
0	0	-0.27360004	0	-0.7071067	0.7071067	0	0.7071069	-0.7071069	0	-0.70710695	-0.7071069	0	0	0	0	-0.12078767	-0.01927874	0.0016599206	NaN	NaN	NaN	1.613793e-07	1e-07	145
0	0	-0.27360004	0	-0.7071067	0.7071067	0	0.7071069	-0.7071069	0	-0.70710695	-0.70710695	0	0	0	0	-0.12050566	-0.019929731	0.0013870467	NaN	NaN	NaN	1.7482759e-07	1e-07	145
0	0	-0.27360004	0	-0.7071067	0.7071067	0	0.7071069	-0.7071069	0	-0.70710695	-0.7071069	0	0	0	0	-0.120165735	-0.020404872	0.0011340266	NaN	NaN	NaN	1.8827586e-07	1e-07	145
0	0	-0.27360004	0	-0.7071067	0.7071067	0	0.7071069	-0.7071069	0	-0.70710695	-0.7071069	0	0	0	0	-0.119923405	-0.02077349	0.00089745683	NaN	NaN	NaN	2.0172413e-07	1e-07	145
0	0	-0.27360004	0	-0.7071067	0.7071067	0	0.7071069	-0.7071069	0	-0.70710695	-0.70710695	0	0	0	0	-0.11990286	-0.02110611	0.00067361636	NaN	NaN	NaN	2.1517242e-07	1e-07	145
0	0	-0.27360004	0	-0.7071067	0.7071067	0	0.7071069	-0.7071069	0	-0.70710695	-0.7071069	0	0	0	0	-0.12020452	-0.021471737	0.00045854077	NaN	NaN	NaN	2.2862069e-07	1e-07	145
0	0	-0.27360007	0	-0.7071067	0.7071067	0	0.7071069	-0.7071069	0	-0.70710695	-0.70710695	0	0	0	0	-0.12090912	-0.021937221	0.00024804648	NaN	NaN	NaN	2.4206898e-07	1e-07	145
0	0	-0.27360004	0	-0.7071067	0.7071067	0	0.7071069	-0.7071069	0	-0.7071069	-0.70710695	0	0	0	0	-0.12208256	-0.022568371	3.7688667e-05	NaN	NaN	NaN	2.5551725e-07	1e-07	145
0	0	-0.27360007	0	-0.7071067	0.7071067	0	0.7071069	-0.7071069	0	-0.707107	-0.70710695	0	0	0	0	-0.123776495	-0.023431871	-0.00017730438	NaN	NaN	NaN	2.6896552e-07	1e-07	145
0	0	-0.27360004	0	-0.7071067	0.7071067	0	0.7071069	-0.7071069	0	-0.70710695	-0.70710695	0	0	0	0	-0.12602831	-0.024597954	-0.0004021338	NaN	NaN	NaN	2.824138e-07	1e-07	145
0	0	-0.27360004	0	-0.7071067	0.7071067	0	0.7071069	-0.7071069	0	-0.70710695	-0.70710695	0	0	0	0	-0.12885664	-0.026142905	-0.0006424917	NaN	NaN	NaN	2.9586207e-07	1e-07	145
0	0	-0.27360004	0	-0.7071067	0.7071067	0	0.707107	-0.7071069	0	-0.70710695	-0.70710695	0	0	0	0	-0.13225353	-0.02815113	-0.0009046333	NaN	NaN	NaN	3.0931034e-07	1e-07	145
0	0	-0.27360004	0	-0.7071067	0.7071067	0	0.7071069	-0.7071069	0	-0.70710695	-0.70710695	0	0	0	0	-0.13616838	-0.030715242	-0.0011953171	NaN	NaN	NaN	3.227586e-07	1e-07	145
0	0	-0.27360004	0	-0.7071067	0.7071067	0	0.7071069	-0.7071069	0	-0.707107	-0.70710695	0	0	0	0	-0.14048423	-0.03393246	-0.0015215484	NaN	NaN	NaN	3.362069e-07	1e-07	145
0	0	-0.27360004	0	-0.7071067	0.7071067	0	0.7071069	-0.7071069	0	-0.70710695	-0.70710695	0	0	0	0	-0.14497814	-0.037893288	-0.0018899324	NaN	NaN	NaN	3.4965518e-07	1e-07	145
0	0	-0.27360004	0	-0.7071067	0.7071067	0	0.707107	-0.7071069	0	-0.70710695	-0.70710695	0	0	0	0	-0.14926286	-0.04265608	-0.0023054236	NaN	NaN	NaN	3.6310345e-07	1e-07	145
0	0	-0.27360004	0	-0.7071067	0.7071067	0	0.7071069	-0.707107	0	-0.70710695	-0.70710695	0	0	0	0	-0.1526966	-0.048192743	-0.0027690476	NaN	NaN	NaN	3.7655172e-07	1e-07	145
0	0	-0.27360004	0	-0.7071067	0.7071067	0	0.7071069	-0.7071069	0	-0.70710695	-0.7071069	0	0	0	0	-0.15425448	-0.05426314	-0.0032744838	NaN	NaN	NaN	3.9e-07	1e-07	145
0	0	-0.27360004	0	-0.7071067	0.7071067	0	0.707107	-0.7071069	0	-0.70710695	-0.70710695	0	0	0	0	-0.15243228	-0.060107954	-0.0038040655	NaN	NaN	NaN	4.0344827e-07	1e-07	145
0	0	-0.27360004	0	-0.7071067	0.7071067	0	0.707107	-0.7071069	0	-0.70710695	-0.70710695	0	0	0	0	-0.14551482	-0.06404507	-0.004326571	NaN	NaN	NaN	4.1689654e-07	1e-07	145
0	0	-0.27360004	0	-0.7071067	0.7071067	0	0.7071069	-0.7071069	0	-0.70710695	-0.70710695	0	0	0	0	-0.13247883	-0.06358964	-0.004800469	NaN	NaN	NaN	4.3034484e-07	1e-07	145
0	0	-0.27360004	0	-0.7071067	0.7071067	0	0.7071069	-0.7071069	0	-0.70710695	-0.7071069	0	0	0	0	-0.11387267	-0.057018448	-0.005183726	NaN	NaN	NaN	4.437931e-07	1e-07	145
0	0	-0.27360004	0	-0.7071067	0.7071067	0	0.707107	-0.7071069	0	-0.70710695	-0.70710695	0	0	0	0	-0.09131355	-0.0453689	-0.005444543	NaN	NaN	NaN	4.5724138e-07	1e-07	145
0	0	-0.27360004	0	-0.7071067	0.7071067	0	0.707107	-0.707107	0	-0.70710695	-0.70710695	0	0	0	0	-0.06655926	-0.03215095	-0.00556672	NaN	NaN	NaN	4.7068966e-07	1e-07	145
0	0	-0.27360004	0	-0.7071067	0.7071067	0	0.7071069	-0.707107	0	-0.70710695	-0.70710695	0	0	0	0	-0.0417486	-0.020991238	-0.005550256	NaN	NaN	NaN	4.8413796e-07	1e-07	145
0	0	-0.27360004	0	-0.7071067	0.7071067	0	0.707107	-0.7071069	0	-0.70710695	-0.7071069	0	0	0	0	-0.019237757	-0.013606737	-0.0054101194	NaN	NaN	NaN	4.975862e-07	1e-07	145
0	0	-0.27360004	0	-0.7071067	0.7071067	0	0.7071069	-0.7071069	0	-0.70710695	-0.707107	0	0	0	0	-0.00058415293	-0.009779026	-0.005172407	NaN	NaN	NaN	5.110345e-07	1e-07	145
0	0	-0.27360004	0	-0.7071067	0.7071067	0	0.7071069	-0.7071069	0	-0.70710695	-0.70710695	0	0	0	0	0.013776166	-0.008525447	-0.004867922	NaN	NaN	NaN	5.2448274e-07	1e-07	145
0	0	-0.27360004	0	-0.7071067	0.7071067	0	0.707107	-0.7071069	0	-0.707107	-0.70710695	0	0	0	0	0.024111247	-0.008892261	-0.0045259763	NaN	NaN	NaN	5.3793104e-07	1e-07	145
0	0	-0.27360004	0	-0.7071067	0.7071067	0	0.7071069	-0.7071069	0	-0.70710695	-0.70710695	0	0	0	0	0.030947505	-0.010176644	-0.0041708155	NaN	NaN	NaN	5.513793e-07	1e-07	145
0	0	-0.2736	0	-0.7071067	0.7071067	0	0.707107	-0.7071069	0	-0.7071069	-0.70710695	0	0	0	0	0.03484812	-0.011893557	-0.0038205986	NaN	NaN	NaN	5.648276e-07	1e-07	145
0	0	-0.27360004	0	-0.7071067	0.7071067	0	0.7071069	-0.7071069	0	-0.70710695	-0.70710695	0	0	0	0	0.036337633	-0.0137236165	-0.003487943	NaN	NaN	NaN	5.782759e-07	1e-07	145
0	0	-0.27360004	0	-0.7071067	0.7071067	0	0.7071069	-0.7071069	0	-0.70710695	-0.70710695	0	0	0	0	0.03587882	-0.015472627	-0.0031810196	NaN	NaN	NaN	5.9172413e-07	1e-07	145
0	0	-0.27360004	0	-0.7071067	0.7071067	0	0.7071069	-0.7071069	0	-0.70710695	-0.70710695	0	0	0	0	0.03386702	-0.017042601	-0.0029046934	NaN	NaN	NaN	6.0517243e-07	1e-07	145
0	0	-0.27360004	0	-0.7071067	0.7071067	0	0.7071069	-0.7071069	0	-0.707107	-0.70710695	0	0	0	0	0.030630125	-0.018409034	-0.0026615162	NaN	NaN	NaN	6.186207e-07	1e-07	145
0	0	-0.27360004	0	-0.7071067	0.7071067	0	0.7071069	-0.7071069	0	-0.70710695	-0.70710695	0	0	0	0	0.026431456	-0.019601543	-0.0024525295	NaN	NaN	NaN	6.32069e-07	1e-07	145
0	0	-0.27360004	0	-0.7071067	0.7071067	0	0.7071069	-0.7071069	0	-0.707107	-0.70710695	0	0	0	0	0.021474706	-0.020688027	-0.002277907	NaN	NaN	NaN	6.455172e-07	1e-07	145
0	0	-0.27360004	0	-0.7071067	0.7071067	0	0.7071069	-0.7071069	0	-0.70710695	-0.70710695	0	0	0	0	0.015910575	-0.021762583	-0.0021374335	NaN	NaN	NaN	6.589655e-07	1e-07	145
0	0	-0.27360004	0	-0.7071067	0.7071067	0	0.707107	-0.7071069	0	-0.7071069	-0.70710695	0	0	0	0	0.0098441085	-0.022937823	-0.0020309074	NaN	NaN	NaN	6.724138e-07	1e-07	145
0	0	-0.27360004	0	-0.7071067	0.7071067	0	0.7071069	-0.7071069	0	-0.70710695	-0.70710695	0	0	0	0	0.0033426867	-0.024341231	-0.0019584275	NaN	NaN	NaN	6.8586206e-07	1e-07	145
0	0	-0.27360004	0	-0.7071067	0.7071067	0	0.7071069	-0.7071069	0	-0.70710695	-0.707107	0	0	0	0	-0.0035557218	-0.026115587	-0.0019206414	NaN	NaN	NaN	6.9931036e-07	1e-07	145
0	0	-0.27360004	0	-0.7071067	0.7071067	0	0.7071069	-0.7071069	0	-0.70710695	-0.7071069	0	0	0	0	-0.010834347	-0.028422425	-0.0019189494	NaN	NaN	NaN	7.127586e-07	1e-07	145
0	0	-0.27360004	0	-0.7071067	0.7071067	0	0.7071069	-0.7071069	0	-0.7071069	-0.70710695	0	0	0	0	-0.018486796	-0.031448588	-0.0019556442	NaN	NaN	NaN	7.262069e-07	1e-07	145
0	0	-0.27360004	0	-0.7071067	0.7071067	0	0.7071069	-0.7071069	0	-0.707107	-0.70710695	0	0	0	0	-0.026503684	-0.035414323	-0.0020339845	NaN	NaN	NaN	7.3965515e-07	1e-07	145
0	0	-0.2736	0	-0.7071067	0.7071067	0	0.7071069	-0.7071069	0	-0.70710695	-0.70710695	0	0	0	0	-0.034852628	-0.04058214	-0.0021580993	NaN	NaN	NaN	7.5310345e-07	1e-07	145
0	0	-0.27360004	0	-0.7071067	0.7071067	0	0.7071069	-0.7071069	0	-0.70710695	-0.70710695	0	0	0	0	-0.043447796	-0.04726208	-0.002332678	NaN	NaN	NaN	7.6655175e-07	1e-07	145
0	0	-0.27360004	0	-0.7071067	0.7071067	0	0.7071069	-0.7071069	0	-0.70710695	-0.70710695	0	0	0	0	-0.052103363	-0.05580628	-0.002562195	NaN	NaN	NaN	7.8e-07	1e-07	145
0	0	-0.27360004	0	-0.7071067	0.7071067	0	0.7071069	-0.7071069	0	-0.70710695	-0.70710695	0	0	0	0	-0.060467597	-0.066574976	-0.002849516	NaN	NaN	NaN	7.934483e-07	1e-07	145
0	0	-0.27360004	0	-0.7071067	0.7071067	0	0.7071069	-0.7071069	0	-0.7071069	-0.70710695	0	0	0	0	-0.067946054	-0.0798434	-0.0031937412	NaN	NaN	NaN	8.0689654e-07	1e-07	145
0	0	-0.27360004	0	-0.7071067	0.7071067	0	0.7071069	-0.7071069	0	-0.70710695	-0.70710695	0	0	0	0	-0.07366476	-0.095610306	-0.003587709	NaN	NaN	NaN	8.2034484e-07	1e-07	145
0	0	-0.27360004	0	-0.7071067	0.7071067	0	0.7071069	-0.7071069	0	-0.70710695	-0.7071069	0	0	0	0	-0.07660502	-0.11332222	-0.0040162373	NaN	NaN	NaN	8.337931e-07	1e-07	145
0	0	-0.2736	0	-0.7071067	0.7071067	0	0.7071069	-0.7071069	0	-0.70710695	-0.70710695	0	0	0	0	-0.076017484	-0.13174936	-0.0044569536	NaN	NaN	NaN	8.472414e-07	1e-07	145
0	0	-0.27360004	0	-0.7071067	0.7071067	0	0.7071069	-0.707107	0	-0.70710695	-0.7071069	0	0	0	0	-0.07188791	-0.1493262	-0.004884482	NaN	NaN	NaN	8.606897e-07	1e-07	145
0	0	-0.27360004	0	-0.7071067	0.7071067	0	0.7071069	-0.7071069	0	-0.70710695	-0.70710695	0	0	0	0	-0.064936206	-0.16481121	-0.005276271	NaN	NaN	NaN	8.741379e-07	1e-07	145
0	0	-0.27360004	0	-0.7071067	0.7071067	0	0.707107	-0.707107	0	-0.70710695	-0.70710695	0	0	0	0	-0.056149747	-0.17762671	-0.005616793	NaN	NaN	NaN	8.875862e-07	1e-07	145
0	0	-0.27360004	0	-0.7071067	0.7071067	0	0.7071069	-0.707107	0	-0.70710695	-0.70710695	0	0	0	0	-0.04636824	-0.18773302	-0.0058983043	NaN	NaN	NaN	9.0103447e-07	1e-07	145
0	0	-0.27360004	0	-0.7071067	0.7071067	0	0.7071069	-0.707107	0	-0.70710695	-0.70710695	0	0	0	0	-0.03614737	-0.19535029	-0.006119065	NaN	NaN	NaN	9.1448277e-07	1e-07	145
0	0	-0.27360004	0	-0.7071067	0.7071067	0	0.7071069	-0.707107	0	-0.70710695	-0.7071069	0	0	0	0	-0.025795491	-0.20076329	-0.0062807715	NaN	NaN	NaN	9.27931e-07	1e-07	145
0	0	-0.27360007	0	-0.7071067	0.7071067	0	0.7071069	-0.7071069	0	-0.70710695	-0.7071069	0	0	0	0	-0.015449783	-0.2042234	-0.0063863276	NaN	NaN	NaN	9.413793e-07	1e-07	145
0	0	-0.27360004	0	-0.7071067	0.7071067	0	0.7071069	-0.7071069	0	-0.70710695	-0.70710695	0	0	0	0	-0.0051437076	-0.20590815	-0.006438359	NaN	NaN	NaN	9.548276e-07	1e-07	145
0	0	-0.27360004	0	-0.7071067	0.7071067	0	0.7071069	-0.7071069	0	-0.70710695	-0.707107	0	0	0	0	NaN	NaN	NaN	NaN	NaN	NaN	9.682759e-07	1e-07	145
0	0	-0.2736	0	-0.7071067	0.7071067	0	0.7071069	-0.7071069	0	-0.70710695	-0.70710695	0	0	0	0	0.005143682	-0.20590816	-0.0064383578	NaN	NaN	NaN	9.817242e-07	1e-07	145
0	0	-0.27360004	0	-0.7071067	0.7071067	0	0.7071069	-0.7071069	0	-0.70710695	-0.70710695	0	0	0	0	0.015449818	-0.2042234	-0.0063863276	NaN	NaN	NaN	9.951724e-07	1e-07	145
0	0	-0.27360004	0	-0.7071067	0.7071067	0	0.7071069	-0.7071069	0	-0.70710695	-0.70710695	0	0	0	0	0.025795493	-0.20076331	-0.0062807696	NaN	NaN	NaN	1.0086206e-06	1e-07	145
0	0	-0.27360004	0	-0.7071067	0.7071067	0	0.7071069	-0.7071069	0	-0.70710695	-0.70710695	0	0	0	0	0.036147382	-0.19535029	-0.006119061	NaN	NaN	NaN	1.022069e-06	1e-07	145
0	0	-0.27360004	0	-0.7071067	0.7071067	0	0.7071069	-0.7071069	0	-0.70710695	-0.70710695	0	0	0	0	0.04636821	-0.18773305	-0.0058982987	NaN	NaN	NaN	1.0355172e-06	1e-07	145
0	0	-0.27360004	0	-0.7071067	0.7071067	0	0.7071069	-0.7071069	0	-0.707107	-0.707107	0	0	0	0	0.05614974	-0.17762668	-0.0056167925	NaN	NaN	NaN	1.0489655e-06	1e-07	145
0	0	-0.27360004	0	-0.7071067	0.7071067	0	0.7071069	-0.7071069	0	-0.70710695	-0.70710695	0	0	0	0	0.06493623	-0.16481125	-0.0052762744	NaN	NaN	NaN	1.0624138e-06	1e-07	145
0	0	-0.27360004	0	-0.7071067	0.7071067	0	0.7071069	-0.7071069	0	-0.70710695	-0.70710695	0	0	0	0	0.07188794	-0.14932618	-0.0048844838	NaN	NaN	NaN	1.0758621e-06	1e-07	145
0	0	-0.27360004	0	-0.7071067	0.7071067	0	0.7071069	-0.7071069	0	-0.707107	-0.70710695	0	0	0	0	0.07601752	-0.13174939	-0.004456958	NaN	NaN	NaN	1.0893103e-06	1e-07	145
0	0	-0.27360004	0	-0.7071067	0.7071067	0	0.7071069	-0.7071069	0	-0.70710695	-0.7071069	0	0	0	0	0.07660501	-0.11332218	-0.004016241	NaN	NaN	NaN	1.1027586e-06	1e-07	145
0	0	-0.27360004	0	-0.7071067	0.7071067	0	0.7071069	-0.7071069	0	-0.707107	-0.70710695	0	0	0	0	0.07366477	-0.09561033	-0.0035877095	NaN	NaN	NaN	1.1162069e-06	1e-07	145
0	0	-0.27360004	0	-0.7071067	0.7071067	0	0.7071069	-0.7071069	0	-0.70710695	-0.70710695	0	0	0	0	0.06794607	-0.07984338	-0.0031937414	NaN	NaN	NaN	1.1296552e-06	1e-07	145
0	0	-0.27360007	0	-0.7071067	0.7071067	0	0.7071069	-0.7071069	0	-0.70710695	-0.70710695	0	0	0	0	0.060467567	-0.066575	-0.0028495167	NaN	NaN	NaN	1.1431034e-06	1e-07	145
0	0	-0.27360004	0	-0.7071067	0.7071067	0	0.7071069	-0.707107	0	-0.70710695	-0.70710695	0	0	0	0	0.052103344	-0.055806268	-0.0025621974	NaN	NaN	NaN	1.1565518e-06	1e-07	145
0	0	-0.27360004	0	-0.7071067	0.7071067	0	0.7071069	-0.7071069	0	-0.70710695	-0.70710695	0	0	0	0	0.04344781	-0.047262102	-0.002332683	NaN	NaN	NaN	1.17e-06	1e-07	145
0	0	-0.27360004	0	-0.7071067	0.7071067	0	0.7071069	-0.7071069	0	-0.70710695	-0.70710695	0	0	0	0	0.034852613	-0.040582135	-0.0021581	NaN	NaN	NaN	1.1834483e-06	1e-07	145
0	0	-0.27360007	0	-0.7071067	0.7071067	0	0.7071069	-0.7071069	0	-0.70710695	-0.70710695	0	0	0	0	0.026503699	-0.035414338	-0.0020339875	NaN	NaN	NaN	1.1968965e-06	1e-07	145
0	0	-0.27360004	0	-0.7071067	0.7071067	0	0.707107	-0.7071069	0	-0.70710695	-0.70710695	0	0	0	0	0.018486785	-0.031448577	-0.0019556493	NaN	NaN	NaN	1.2103449e-06	1e-07	145
0	0	-0.2736	0	-0.7071067	0.7071067	0	0.7071069	-0.7071069	0	-0.70710695	-0.70710695	0	0	0	0	0.010834355	-0.028422436	-0.0019189487	NaN	NaN	NaN	1.2237931e-06	1e-07	145
0	0	-0.2736	0	-0.7071067	0.7071067	0	0.7071069	-0.7071069	0	-0.70710695	-0.707107	0	0	0	0	0.0035557025	-0.026115578	-0.0019206385	NaN	NaN	NaN	1.2372413e-06	1e-07	145
0	0	-0.27360004	0	-0.7071067	0.7071067	0	0.7071069	-0.7071069	0	-0.70710695	-0.70710695	0	0	0	0	-0.0033427118	-0.024341246	-0.0019584242	NaN	NaN	NaN	1.2506897e-06	1e-07	145
0	0	-0.27360004	0	-0.7071067	0.7071067	0	0.7071069	-0.7071069	0	-0.70710695	-0.70710695	0	0	0	0	-0.009844072	-0.022937827	-0.002030905	NaN	NaN	NaN	1.264138e-06	1e-07	145
0	0	-0.27360004	0	-0.7071067	0.7071067	0	0.7071069	-0.7071069	0	-0.70710695	-0.7071069	0	0	0	0	-0.015910536	-0.021762598	-0.0021374393	NaN	NaN	NaN	1.2775862e-06	1e-07	145
0	0	-0.27360004	0	-0.7071067	0.7071067	0	0.7071069	-0.7071069	0	-0.707107	-0.7071069	0	0	0	0	-0.021474712	-0.02068803	-0.002277909	NaN	NaN	NaN	1.2910344e-06	1e-07	145
0	0	-0.27360004	0	-0.7071067	0.7071067	0	0.7071069	-0.7071069	0	-0.707107	-0.70710695	0	0	0	0	-0.026431449	-0.019601552	-0.0024525342	NaN	NaN	NaN	1.3044828e-06	1e-07	145
0	0	-0.27360004	0	-0.7071067	0.7071067	0	0.7071069	-0.7071069	0	-0.70710695	-0.70710695	0	0	0	0	-0.030630134	-0.018409034	-0.0026615206	NaN	NaN	NaN	1.317931e-06	1e-07	145
0	0	-0.27360007	0	-0.7071067	0.7071067	0	0.7071069	-0.7071069	0	-0.70710695	-0.70710695	0	0	0	0	-0.033866998	-0.017042605	-0.0029047045	NaN	NaN	NaN	1.3313793e-06	1e-07	145
0	0	-0.27360004	0	-0.7071067	0.7071067	0	0.7071069	-0.7071069	0	-0.70710695	-0.70710695	0	0	0	0	-0.035878833	-0.015472624	-0.003181026	NaN	NaN	NaN	1.3448276e-06	1e-07	145
0	0	-0.27360004	0	-0.7071067	0.7071067	0	0.7071069	-0.7071069	0	-0.70710695	-0.7071069	0	0	0	0	-0.03633765	-0.013723625	-0.0034879502	NaN	NaN	NaN	1.3582759e-06	1e-07	145
0	0	-0.27360004	0	-0.7071067	0.7071067	0	0.7071069	-0.7071069	0	-0.707107	-0.70710695	0	0	0	0	-0.034848116	-0.011893547	-0.0038205995	NaN	NaN	NaN	1.3717241e-06	1e-07	145
0	0	-0.27360004	0	-0.7071067	0.7071067	0	0.707107	-0.707107	0	-0.7071069	-0.70710695	0	0	0	0	-0.030947503	-0.010176663	-0.0041708206	NaN	NaN	NaN	1.3851724e-06	1e-07	145
0	0	-0.27360004	0	-0.7071067	0.7071067	0	0.7071069	-0.7071069	0	-0.70710695	-0.70710695	0	0	0	0	-0.024111236	-0.008892262	-0.004525982	NaN	NaN	NaN	1.3986207e-06	1e-07	145
0	0	-0.27360004	0	-0.7071067	0.7071067	0	0.7071069	-0.7071069	0	-0.70710695	-0.7071069	0	0	0	0	-0.013776173	-0.008525465	-0.004867929	NaN	NaN	NaN	1.412069e-06	1e-07	145
0	0	-0.27360004	0	-0.7071067	0.7071067	0	0.7071069	-0.707107	0	-0.70710695	-0.70710695	0	0	0	0	0.00058417226	-0.009779015	-0.005172414	NaN	NaN	NaN	1.4255172e-06	1e-07	145
0	0	-0.2736	0	-0.7071067	0.7071067	0	0.7071069	-0.7071069	0	-0.70710695	-0.70710695	0	0	0	0	0.019237753	-0.013606745	-0.0054101255	NaN	NaN	NaN	1.4389656e-06	1e-07	145
0	0	-0.27360004	0	-0.7071067	0.7071067	0	0.7071069	-0.7071069	0	-0.70710695	-0.70710695	0	0	0	0	0.041748654	-0.020991227	-0.0055502597	NaN	NaN	NaN	1.4524138e-06	1e-07	145
0	0	-0.27360004	0	-0.7071067	0.7071067	0	0.7071069	-0.7071069	0	-0.70710695	-0.70710695	0	0	0	0	0.06655921	-0.03215095	-0.005566722	NaN	NaN	NaN	1.465862e-06	1e-07	145
0	0	-0.2736	0	-0.7071067	0.7071067	0	0.7071069	-0.7071069	0	-0.7071069	-0.70710695	0	0	0	0	0.09131359	-0.04536889	-0.0054445458	NaN	NaN	NaN	1.4793103e-06	1e-07	145
0	0	-0.2736	0	-0.7071067	0.7071067	0	0.7071069	-0.7071069	0	-0.70710695	-0.70710695	0	0	0	0	0.11387261	-0.05701844	-0.005183731	NaN	NaN	NaN	1.4927587e-06	1e-07	145
0	0	-0.27360007	0	-0.7071067	0.7071067	0	0.7071069	-0.7071069	0	-0.707107	-0.70710695	0	0	0	0	0.13247888	-0.06358963	-0.004800471	NaN	NaN	NaN	1.5062069e-06	1e-07	145
0	0	-0.27360004	0	-0.7071067	0.7071067	0	0.7071069	-0.7071069	0	-0.7071069	-0.7071069	0	0	0	0	0.14551474	-0.06404506	-0.0043265717	NaN	NaN	NaN	1.5196551e-06	1e-07	145
0	0	-0.27360004	0	-0.7071067	0.7071067	0	0.7071069	-0.707107	0	-0.70710695	-0.70710695	0	0	0	0	0.15243231	-0.060107954	-0.0038040644	NaN	NaN	NaN	1.5331035e-06	1e-07	145
0	0	-0.27360004	0	-0.7071067	0.7071067	0	0.7071069	-0.7071069	0	-0.7071069	-0.70710695	0	0	0	0	0.15425444	-0.05426313	-0.003274479	NaN	NaN	NaN	1.5465517e-06	1e-07	145
0	0	-0.27360004	0	-0.7071067	0.7071067	0	0.7071069	-0.7071069	0	-0.70710695	-0.70710695	0	0	0	0	0.15269658	-0.048192732	-0.0027690425	NaN	NaN	NaN	1.56e-06	1e-07	145
0	0	-0.27360004	0	-0.7071067	0.7071067	0	0.7071069	-0.7071069	0	-0.70710695	-0.70710695	0	0	0	0	0.14926286	-0.042656068	-0.0023054199	NaN	NaN	NaN	1.5734482e-06	1e-07	145
0	0	-0.27360004	0	-0.7071067	0.7071067	0	0.707107	-0.707107	0	-0.70710695	-0.70710695	0	0	0	0	0.14497815	-0.037893288	-0.0018899257	NaN	NaN	NaN	1.5868966e-06	1e-07	145
0	0	-0.27360004	0	-0.7071067	0.7071067	0	0.7071069	-0.7071069	0	-0.70710695	-0.707107	0	0	0	0	0.14048414	-0.03393245	-0.0015215438	NaN	NaN	NaN	1.6003448e-06	1e-07	145
0	0	-0.27360007	0	-0.7071067	0.7071067	0	0.7071069	-0.7071069	0	-0.70710695	-0.70710695	0	0	0	0	0.13616845	-0.030715248	-0.001195312	NaN	NaN	NaN	1.6137931e-06	1e-07	145
0	0	-0.27360004	0	-0.7071067	0.7071067	0	0.707107	-0.7071069	0	-0.70710695	-0.70710695	0	0	0	0	0.13225348	-0.028151125	-0.00090463215	NaN	NaN	NaN	1.6272414e-06	1e-07	145
0	0	-0.27360007	0	-0.7071067	0.7071067	0	0.7071069	-0.7071069	0	-0.70710695	-0.70710695	0	0	0	0	0.12885673	-0.026142908	-0.0006424872	NaN	NaN	NaN	1.6406897e-06	1e-07	145
0	0	-0.27360007	0	-0.7071067	0.7071067	0	0.7071069	-0.7071069	0	-0.70710695	-0.70710695	0	0	0	0	0.12602827	-0.024597945	-0.00040213176	NaN	NaN	NaN	1.6541379e-06	1e-07	145
0	0	-0.27360004	0	-0.7071067	0.7071067	0	0.7071069	-0.7071069	0	-0.70710695	-0.70710695	0	0	0	0	0.12377651	-0.02343188	-0.00017730898	NaN	NaN	NaN	1.6675862e-06	1e-07	145
0	0	-0.27360004	0	-0.7071067	0.7071067	0	0.7071069	-0.7071069	0	-0.70710695	-0.7071069	0	0	0	0	0.12208256	-0.022568364	3.768544e-05	NaN	NaN	NaN	1.6810345e-06	1e-07	145
0	0	-0.27360004	0	-0.7071067	0.7071067	0	0.7071069	-0.7071069	0	-0.707107	-0.70710695	0	0	0	0	0.120909244	-0.021937227	0.0002480456	NaN	NaN	NaN	1.6944828e-06	1e-07	145
0	0	-0.27360004	0	-0.7071067	0.7071067	0	0.707107	-0.7071069	0	-0.70710695	-0.70710695	0	0	0	0	0.120204456	-0.021471728	0.00045853728	NaN	NaN	NaN	1.707931e-06	1e-07	145
0	0	-0.27360004	0	-0.7071067	0.7071067	0	0.7071069	-0.707107	0	-0.70710695	-0.7071069	0	0	0	0	0.11990294	-0.021106115	0.0006736108	NaN	NaN	NaN	1.7213794e-06	1e-07	145
0	0	-0.27360004	0	-0.7071067	0.7071067	0	0.707107	-0.7071069	0	-0.7071069	-0.70710695	0	0	0	0	0.119923316	-0.02077348	0.00089745154	NaN	NaN	NaN	1.7348276e-06	1e-07	145
0	0	-0.27360004	0	-0.7071067	0.7071067	0	0.7071069	-0.707107	0	-0.70710695	-0.70710695	0	0	0	0	0.12016578	-0.020404872	0.0011340212	NaN	NaN	NaN	1.7482758e-06	1e-07	145
0	0	-0.27360004	0	-0.7071067	0.7071067	0	0.7071069	-0.7071069	0	-0.70710695	-0.7071069	0	0	0	0	0.12050556	-0.019929718	0.0013870471	NaN	NaN	NaN	1.7617241e-06	1e-07	145
0	0	-0.27360004	0	-0.7071067	0.7071067	0	0.7071069	-0.7071069	0	-0.70710695	-0.7071069	0	0	0	0	0.12078774	-0.019278746	0.001659921	NaN	NaN	NaN	1.7751724e-06	1e-07	145
0	0	-0.27360004	0	-0.7071067	0.7071067	0	0.7071069	-0.7071069	0	-0.70710695	-0.70710695	0	0	0	0	0.120818324	-0.018389465	0.0019555502	NaN	NaN	NaN	1.7886207e-06	1e-07	145
0	0	-0.27360004	0	-0.7071067	0.7071067	0	0.707107	-0.7071069	0	-0.7071069	-0.70710695	0	0	0	0	0.12035747	-0.017215565	0.0022760583	NaN	NaN	NaN	1.8020689e-06	1e-07	145
0	0	-0.27360004	0	-0.7071067	0.7071067	0	0.7071069	-0.7071069	0	-0.70710695	-0.707107	0	0	0	0	0.11911035	-0.01573997	0.002622374	NaN	NaN	NaN	1.8155173e-06	1e-07	145
0	0	-0.27360004	0	-0.7071067	0.7071067	0	0.7071069	-0.7071069	0	-0.7071069	-0.70710695	0	0	0	0	0.11672167	-0.01399243	0.002993629	NaN	NaN	NaN	1.8289655e-06	1e-07	145
0	0	-0.27360004	0	-0.7071067	0.7071067	0	0.7071069	-0.707107	0	-0.70710695	-0.70710695	0	0	0	0	0.11276957	-0.012071376	0.0033863399	NaN	NaN	NaN	1.8424138e-06	1e-07	145
0	0	-0.27360004	0	-0.7071067	0.7071067	0	0.7071069	-0.7071069	0	-0.70710695	-0.70710695	0	0	0	0	0.10676583	-0.010171165	0.0037933919	NaN	NaN	NaN	1.855862e-06	1e-07	145
0	0	-0.27360007	0	-0.7071067	0.7071067	0	0.7071069	-0.7071069	0	-0.70710695	-0.70710695	0	0	0	0	0.09816409	-0.008615997	0.004202865	NaN	NaN	NaN	1.8693104e-06	1e-07	145
0	0	-0.27360004	0	-0.7071067	0.7071067	0	0.707107	-0.7071069	0	-0.70710695	-0.70710695	0	0	0	0	0.08639291	-0.007900715	0.004596887	NaN	NaN	NaN	1.8827586e-06	1e-07	145
0	0	-0.27360004	0	-0.7071067	0.7071067	0	0.707107	-0.7071069	0	-0.70710695	-0.70710695	0	0	0	0	0.070940614	-0.008725827	0.0049511455	NaN	NaN	NaN	1.8962069e-06	1e-07	145
0	0	-0.27360004	0	-0.7071067	0.7071067	0	0.7071069	-0.7071069	0	-0.70710695	-0.7071069	0	0	0	0	0.051542636	-0.011987665	0.0052359235	NaN	NaN	NaN	1.909655e-06	1e-07	145
0	0	-0.27360004	0	-0.7071067	0.7071067	0	0.7071069	-0.7071069	0	-0.70710695	-0.7071069	0	0	0	0	0.028522836	-0.018578539	0.0054198685	NaN	NaN	NaN	1.9231034e-06	1e-07	145
0	0	-0.27360004	0	-0.7071067	0.7071067	0	0.707107	-0.707107	0	-0.70710695	-0.7071069	0	0	0	0	0.0031326748	-0.028765531	0.0054766657	NaN	NaN	NaN	1.9365518e-06	1e-07	145
0	0	-0.27360004	0	-0.7071067	0.7071067	0	0.707107	-0.7071069	0	-0.70710695	-0.70710695	0	0	0	0	0.0031326748	-0.028765531	0.0054766666	4.617808e-09	-0.08092124	4.811833e-09	1.9365518e-06	5e-08	145
0	0	-0.27360004	0	-0.7071067	0.7071067	0	0.7071069	-0.7071069	0	-0.70710695	-0.70710695	0	0	0	0	0.0031326748	-0.028765531	0.0054766657	5.8013634e-09	-0.07871746	5.01556e-09	1.9365518e-06	5.551282e-08	145
0	0	-0.27360004	0	-0.7071067	0.7071067	0	0.7071069	-0.7071069	0	-0.707107	-0.70710695	0	0	0	0	0.0031326748	-0.028765531	0.0054766657	5.109339e-09	-0.07659982	5.0414304e-09	1.9365518e-06	6.102564e-08	145
0	0	-0.27360004	0	-0.7071067	0.7071067	0	0.707107	-0.707107	0	-0.7071069	-0.70710695	0	0	0	0	0.0031326748	-0.028765531	0.0054766657	4.3267696e-09	-0.07456242	4.8676156e-09	1.9365518e-06	6.653846e-08	145
0	0	-0.27360004	0	-0.7071067	0.7071067	0	0.7071069	-0.7071069	0	-0.70710695	-0.70710695	0	0	0	0	0.0031326748	-0.028765531	0.0054766666	4.6022857e-09	-0.072599836	4.617808e-09	1.9365518e-06	7.205128e-08	145
0	0	-0.27360004	0	-0.7071067	0.7071067	0	0.7071069	-0.7071069	0	-0.70710695	-0.70710695	0	0	0	0	0.0031326748	-0.028765531	0.0054766666	5.1843623e-09	-0.06866416	4.6236286e-09	1.9365518e-06	7.75641e-08	145
0	0	-0.27360007	0	-0.7071067	0.7071067	0	0.7071069	-0.707107	0	-0.70710695	-0.70710695	0	0	0	0	0.0031326748	-0.028765531	0.0054766657	5.044664e-09	-0.06494399	4.932129e-09	1.9365518e-06	8.307692e-08	145
0	0	-0.27360004	0	-0.7071067	0.7071067	0	0.7071069	-0.7071069	0	-0.70710695	-0.70710695	0	0	0	0	0.0031326748	-0.028765531	0.0054766666	5.820766e-09	-0.06141971	5.3056284e-09	1.9365518e-06	8.858974e-08	145
0	0	-0.27360004	0	-0.7071067	0.7071067	0	0.7071069	-0.707107	0	-0.70710695	-0.7071069	0	0	0	0	0.0031326748	-0.028765531	0.0054766657	6.8219377e-09	-0.05807346	6.0603877e-09	1.9365518e-06	9.410257e-08	145
0	0	-0.27360004	0	-0.7071067	0.7071067	0	0.707107	-0.7071069	0	-0.70710695	-0.7071069	0	0	0	0	0.0031326748	-0.028765531	0.0054766666	6.944174e-09	-0.054888923	6.827759e-09	1.9365518e-06	9.9615384e-08	145
0	0	-0.27360004	0	-0.7071067	0.7071067	0	0.7071069	-0.707107	0	-0.7071069	-0.7071069	0	0	0	0	0.0031326748	-0.028765531	0.0054766666	6.589107e-09	-0.0518512	6.8491013e-09	1.9365518e-06	1.0512821e-07	145
0	0	-0.27360004	0	-0.7071067	0.7071067	0	0.7071069	-0.7071069	0	-0.707107	-0.70710695	0	0	0	0	0.0031326748	-0.028765531	0.0054766666	6.443588e-09	-0.048946597	6.1476992e-09	1.9365518e-06	1.10641025e-07	145
0	0	-0.27360004	0	-0.7071067	0.7071067	0	0.707107	-0.7071069	0	-0.70710695	-0.70710695	0	0	0	0	0.0031326748	-0.028765531	0.0054766657	6.3019496e-09	-0.0461625	4.901085e-09	1.9365518e-06	1.1615385e-07	145
0	0	-0.27360004	0	-0.7071067	0.7071067	0	0.707107	-0.7071069	0	-0.70710695	-0.7071069	0	0	0	0	0.0031326748	-0.028765531	0.0054766657	6.639554e-09	-0.043487415	3.7718566e-09	1.9365518e-06	1.2166667e-07	145
0	0	-0.27360004	0	-0.7071067	0.7071067	0	0.7071069	-0.7071069	0	-0.70710695	-0.70710695	0	0	0	0	0.0031326748	-0.028765531	0.0054766666	5.8362883e-09	-0.04091073	2.8434441e-09	1.9365518e-06	1.2717949e-07	145
0	0	-0.27360004	0	-0.7071067	0.7071067	0	0.7071069	-0.7071069	0	-0.70710695	-0.70710695	0	0	0	0	0.0031326748	-0.028765531	0.0054766657	5.8382286e-09	-0.038422566	2.0537603e-09	1.9365518e-06	1.326923e-07	145
0	0	-0.27360004	0	-0.7071067	0.7071067	0	0.7071069	-0.7071069	0	-0.7071069	-0.7071069	0	0	0	0	0.0031326748	-0.028765531	0.0054766657	5.706291e-09	-0.036013883	1.4590721e-09	1.9365518e-06	1.3820512e-07	145
0	0	-0.27360004	0	-0.7071067	0.7071067	0	0.7071069	-0.7071069	0	-0.70710695	-0.70710695	0	0	0	0	0.0031326748	-0.028765531	0.0054766657	5.7237535e-09	-0.033676352	1.2485544e-09	1.9365518e-06	1.4371795e-07	145
0	0	-0.27360004	0	-0.7071067	0.7071067	0	0.7071069	-0.7071069	0	-0.70710695	-0.70710695	0	0	0	0	0.0031326748	-0.028765531	0.0054766657	4.885563e-09	-0.03140212	1.7074248e-10	1.9365518e-06	1.4923077e-07	145
0	0	-0.27360004	0	-0.7071067	0.7071067	0	0.7071069	-0.7071069	0	-0.7071069	-0.70710695	0	0	0	0	0.0031326748	-0.028765531	0.0054766657	5.2173466e-09	-0.02918404	-9.507252e-10	1.9365518e-06	1.5474359e-07	145
0	0	-0.27360004	0	-0.7071067	0.7071067	0	0.7071069	-0.7071069	0	-0.707107	-0.70710695	0	0	0	0	0.0031326748	-0.028765531	0.0054766657	4.2840838e-09	-0.027015507	-1.9179425e-09	1.9365518e-06	1.602564e-07	145
0	0	-0.27360004	0	-0.7071067	0.7071067	0	0.7071069	-0.7071069	0	-0.70710695	-0.70710695	0	0	0	0	0.0031326748	-0.028765531	0.0054766666	3.3294782e-09	-0.024890358	-2.50875e-09	1.9365518e-06	1.6576924e-07	145
0	0	-0.27360004	0	-0.7071067	0.7071067	0	0.707107	-0.7071069	0	-0.70710695	-0.7071069	0	0	0	0	0.0031326748	-0.028765531	0.0054766666	2.6018825e-09	-0.022802921	-2.9045624e-09	1.9365518e-06	1.7128205e-07	145
0	0	-0.27360007	0	-0.7071067	0.7071067	0	0.7071069	-0.7071069	0	-0.70710695	-0.70710695	0	0	0	0	0.0031326748	-0.028765531	0.0054766666	1.7520506e-09	-0.020748008	-2.7939677e-09	1.9365518e-06	1.7679487e-07	145
0	0	-0.27360004	0	-0.7071067	0.7071067	0	0.7071069	-0.7071069	0	-0.70710695	-0.70710695	0	0	0	0	0.0031326748	-0.028765531	0.0054766657	6.131207e-10	-0.01872077	-2.7085965e-09	1.9365518e-06	1.8230769e-07	145